 Entering Gaussian System, Link 0=g09
 Input=2oxygen_gauche.gjf
 Output=2oxygen_gauche.log
 Initial command:
 /gpfs/research/software/gaussian09/intel/g09.01/l1.exe "/gpfs/home/lrk19e/PEG_Li/Gau-23584.inp" -scrdir="/gpfs/home/lrk19e/PEG_Li/"
 Entering Link 1 = /gpfs/research/software/gaussian09/intel/g09.01/l1.exe PID=     23585.
  
 Copyright (c) 1988,1990,1992,1993,1995,1998,2003,2009,2015,
            Gaussian, Inc.  All Rights Reserved.
  
 This is part of the Gaussian(R) 09 program.  It is based on
 the Gaussian(R) 03 system (copyright 2003, Gaussian, Inc.),
 the Gaussian(R) 98 system (copyright 1998, Gaussian, Inc.),
 the Gaussian(R) 94 system (copyright 1995, Gaussian, Inc.),
 the Gaussian 92(TM) system (copyright 1992, Gaussian, Inc.),
 the Gaussian 90(TM) system (copyright 1990, Gaussian, Inc.),
 the Gaussian 88(TM) system (copyright 1988, Gaussian, Inc.),
 the Gaussian 86(TM) system (copyright 1986, Carnegie Mellon
 University), and the Gaussian 82(TM) system (copyright 1983,
 Carnegie Mellon University). Gaussian is a federally registered
 trademark of Gaussian, Inc.
  
 This software contains proprietary and confidential information,
 including trade secrets, belonging to Gaussian, Inc.
  
 This software is provided under written license and may be
 used, copied, transmitted, or stored only in accord with that
 written license.
  
 The following legend is applicable only to US Government
 contracts under FAR:
  
                    RESTRICTED RIGHTS LEGEND
  
 Use, reproduction and disclosure by the US Government is
 subject to restrictions as set forth in subparagraphs (a)
 and (c) of the Commercial Computer Software - Restricted
 Rights clause in FAR 52.227-19.
  
 Gaussian, Inc.
 340 Quinnipiac St., Bldg. 40, Wallingford CT 06492
  
  
 ---------------------------------------------------------------
 Warning -- This program may not be used in any manner that
 competes with the business of Gaussian, Inc. or will provide
 assistance to any competitor of Gaussian, Inc.  The licensee
 of this program is prohibited from giving any competitor of
 Gaussian, Inc. access to this program.  By using this program,
 the user acknowledges that Gaussian, Inc. is engaged in the
 business of creating and licensing software in the field of
 computational chemistry and represents and warrants to the
 licensee that it is not a competitor of Gaussian, Inc. and that
 it will not use this program in any manner prohibited above.
 ---------------------------------------------------------------
  

 Cite this work as:
 Gaussian 09, Revision E.01,
 M. J. Frisch, G. W. Trucks, H. B. Schlegel, G. E. Scuseria, 
 M. A. Robb, J. R. Cheeseman, G. Scalmani, V. Barone, B. Mennucci, 
 G. A. Petersson, H. Nakatsuji, M. Caricato, X. Li, H. P. Hratchian, 
 A. F. Izmaylov, J. Bloino, G. Zheng, J. L. Sonnenberg, M. Hada, 
 M. Ehara, K. Toyota, R. Fukuda, J. Hasegawa, M. Ishida, T. Nakajima, 
 Y. Honda, O. Kitao, H. Nakai, T. Vreven, J. A. Montgomery, Jr., 
 J. E. Peralta, F. Ogliaro, M. Bearpark, J. J. Heyd, E. Brothers, 
 K. N. Kudin, V. N. Staroverov, T. Keith, R. Kobayashi, J. Normand, 
 K. Raghavachari, A. Rendell, J. C. Burant, S. S. Iyengar, J. Tomasi, 
 M. Cossi, N. Rega, J. M. Millam, M. Klene, J. E. Knox, J. B. Cross, 
 V. Bakken, C. Adamo, J. Jaramillo, R. Gomperts, R. E. Stratmann, 
 O. Yazyev, A. J. Austin, R. Cammi, C. Pomelli, J. W. Ochterski, 
 R. L. Martin, K. Morokuma, V. G. Zakrzewski, G. A. Voth, 
 P. Salvador, J. J. Dannenberg, S. Dapprich, A. D. Daniels, 
 O. Farkas, J. B. Foresman, J. V. Ortiz, J. Cioslowski, 
 and D. J. Fox, Gaussian, Inc., Wallingford CT, 2013.
 
 ******************************************
 Gaussian 09:  ES64L-G09RevE.01 30-Nov-2015
                 5-Jul-2020 
 ******************************************
 %nprocs=10
 Will use up to   10 processors via shared memory.
 %chk=2oxygen_gauche.chk
 ----------------------------------------------------------------------
 # opt freq=noraman rb3lyp/6-31++g(d,p) temperature=393.15 geom=connect
 ivity empiricaldispersion=GD3 integral=UltraFine
 ----------------------------------------------------------------------
 1/14=-1,18=20,19=15,26=4,38=1,57=2,112=393150/1,3;
 2/9=110,12=2,17=6,18=5,40=1/2;
 3/5=1,6=6,7=1111,11=2,16=1,25=1,30=1,71=1,74=-5,75=-5,116=1,124=31/1,2,3;
 4//1;
 5/5=2,38=5/2;
 6/7=2,8=2,9=2,10=2,28=1/1;
 7//1,2,3,16;
 1/14=-1,18=20,19=15,26=4/3(2);
 2/9=110/2;
 99//99;
 2/9=110/2;
 3/5=1,6=6,7=1111,11=2,16=1,25=1,30=1,71=1,74=-5,75=-5,116=1,124=31/1,2,3;
 4/5=5,16=3,69=1/1;
 5/5=2,38=5/2;
 7//1,2,3,16;
 1/14=-1,18=20,19=15,26=4/3(-5);
 2/9=110/2;
 6/7=2,8=2,9=2,10=2,19=2,28=1/1;
 99/9=1/99;
 -------------------
 Title Card Required
 -------------------
 Symbolic Z-matrix:
 Charge =  0 Multiplicity = 1
 C                    -1.80486   2.00886  -1.29096 
 H                    -1.89701   2.70945  -0.44609 
 H                    -2.71885   1.39623  -1.34045 
 H                    -1.70651   2.57858  -2.21786 
 C                    -0.64437   0.40334  -0.00004 
 H                    -1.5098   -0.27837   0.01435 
 H                    -0.6911    1.0296    0.90524 
 C                     0.64437  -0.40334  0. 
 H                     0.67787  -1.05074  -0.89088 
 H                     0.67784  -1.05071   0.8909 
 C                     2.99109  -0.11383   0.00002 
 H                     3.12866  -0.74173  -0.89438 
 H                     3.74452   0.6772    0.00002 
 H                     3.12864  -0.74172   0.89443 
 O                    -0.64637   1.20256  -1.17159 
 O                     1.72302   0.51741   0. 
 

 GradGradGradGradGradGradGradGradGradGradGradGradGradGradGradGradGradGrad
 Berny optimization.
 Initialization pass.
                           ----------------------------
                           !    Initial Parameters    !
                           ! (Angstroms and Degrees)  !
 --------------------------                            --------------------------
 ! Name  Definition              Value          Derivative Info.                !
 --------------------------------------------------------------------------------
 ! R1    R(1,2)                  1.1014         estimate D2E/DX2                !
 ! R2    R(1,3)                  1.1014         estimate D2E/DX2                !
 ! R3    R(1,4)                  1.0924         estimate D2E/DX2                !
 ! R4    R(1,15)                 1.4165         estimate D2E/DX2                !
 ! R5    R(5,6)                  1.1018         estimate D2E/DX2                !
 ! R6    R(5,7)                  1.1018         estimate D2E/DX2                !
 ! R7    R(5,8)                  1.5204         estimate D2E/DX2                !
 ! R8    R(5,15)                 1.4182         estimate D2E/DX2                !
 ! R9    R(8,9)                  1.1018         estimate D2E/DX2                !
 ! R10   R(8,10)                 1.1018         estimate D2E/DX2                !
 ! R11   R(8,16)                 1.4182         estimate D2E/DX2                !
 ! R12   R(11,12)                1.1014         estimate D2E/DX2                !
 ! R13   R(11,13)                1.0924         estimate D2E/DX2                !
 ! R14   R(11,14)                1.1014         estimate D2E/DX2                !
 ! R15   R(11,16)                1.4165         estimate D2E/DX2                !
 ! A1    A(2,1,3)              108.5923         estimate D2E/DX2                !
 ! A2    A(2,1,4)              109.0657         estimate D2E/DX2                !
 ! A3    A(2,1,15)             111.4602         estimate D2E/DX2                !
 ! A4    A(3,1,4)              109.0657         estimate D2E/DX2                !
 ! A5    A(3,1,15)             111.4602         estimate D2E/DX2                !
 ! A6    A(4,1,15)             107.1419         estimate D2E/DX2                !
 ! A7    A(6,5,7)              107.9178         estimate D2E/DX2                !
 ! A8    A(6,5,8)              109.7257         estimate D2E/DX2                !
 ! A9    A(6,5,15)             111.0001         estimate D2E/DX2                !
 ! A10   A(7,5,8)              109.7257         estimate D2E/DX2                !
 ! A11   A(7,5,15)             111.0002         estimate D2E/DX2                !
 ! A12   A(8,5,15)             107.4706         estimate D2E/DX2                !
 ! A13   A(5,8,9)              109.7257         estimate D2E/DX2                !
 ! A14   A(5,8,10)             109.7257         estimate D2E/DX2                !
 ! A15   A(5,8,16)             107.4706         estimate D2E/DX2                !
 ! A16   A(9,8,10)             107.9178         estimate D2E/DX2                !
 ! A17   A(9,8,16)             111.0001         estimate D2E/DX2                !
 ! A18   A(10,8,16)            111.0001         estimate D2E/DX2                !
 ! A19   A(12,11,13)           109.0657         estimate D2E/DX2                !
 ! A20   A(12,11,14)           108.5922         estimate D2E/DX2                !
 ! A21   A(12,11,16)           111.4602         estimate D2E/DX2                !
 ! A22   A(13,11,14)           109.0656         estimate D2E/DX2                !
 ! A23   A(13,11,16)           107.1419         estimate D2E/DX2                !
 ! A24   A(14,11,16)           111.4601         estimate D2E/DX2                !
 ! A25   A(1,15,5)             113.0511         estimate D2E/DX2                !
 ! A26   A(8,16,11)            113.0511         estimate D2E/DX2                !
 ! D1    D(2,1,15,5)            60.7571         estimate D2E/DX2                !
 ! D2    D(3,1,15,5)           -60.7521         estimate D2E/DX2                !
 ! D3    D(4,1,15,5)          -179.9975         estimate D2E/DX2                !
 ! D4    D(6,5,8,9)             60.0            estimate D2E/DX2                !
 ! D5    D(6,5,8,10)           -58.4095         estimate D2E/DX2                !
 ! D6    D(6,5,8,16)          -179.2048         estimate D2E/DX2                !
 ! D7    D(7,5,8,9)            178.4094         estimate D2E/DX2                !
 ! D8    D(7,5,8,10)            59.9999         estimate D2E/DX2                !
 ! D9    D(7,5,8,16)           -60.7953         estimate D2E/DX2                !
 ! D10   D(15,5,8,9)           -60.7953         estimate D2E/DX2                !
 ! D11   D(15,5,8,10)         -179.2047         estimate D2E/DX2                !
 ! D12   D(15,5,8,16)           60.0            estimate D2E/DX2                !
 ! D13   D(6,5,15,1)            60.0068         estimate D2E/DX2                !
 ! D14   D(7,5,15,1)           -60.0157         estimate D2E/DX2                !
 ! D15   D(8,5,15,1)           179.9956         estimate D2E/DX2                !
 ! D16   D(5,8,16,11)         -179.9994         estimate D2E/DX2                !
 ! D17   D(9,8,16,11)          -60.0106         estimate D2E/DX2                !
 ! D18   D(10,8,16,11)          60.0118         estimate D2E/DX2                !
 ! D19   D(12,11,16,8)          60.7547         estimate D2E/DX2                !
 ! D20   D(13,11,16,8)        -179.9998         estimate D2E/DX2                !
 ! D21   D(14,11,16,8)         -60.7545         estimate D2E/DX2                !
 --------------------------------------------------------------------------------
 Trust Radius=3.00D-01 FncErr=1.00D-07 GrdErr=1.00D-06
 Number of steps in this run=     72 maximum allowed number of steps=    100.
 GradGradGradGradGradGradGradGradGradGradGradGradGradGradGradGradGradGrad

                          Input orientation:                          
 ---------------------------------------------------------------------
 Center     Atomic      Atomic             Coordinates (Angstroms)
 Number     Number       Type             X           Y           Z
 ---------------------------------------------------------------------
      1          6           0       -1.804858    2.008860   -1.290961
      2          1           0       -1.897014    2.709455   -0.446085
      3          1           0       -2.718851    1.396234   -1.340454
      4          1           0       -1.706514    2.578578   -2.217859
      5          6           0       -0.644372    0.403344   -0.000038
      6          1           0       -1.509802   -0.278369    0.014352
      7          1           0       -0.691101    1.029605    0.905237
      8          6           0        0.644372   -0.403344   -0.000003
      9          1           0        0.677872   -1.050739   -0.890883
     10          1           0        0.677842   -1.050711    0.890898
     11          6           0        2.991087   -0.113827    0.000019
     12          1           0        3.128662   -0.741729   -0.894383
     13          1           0        3.744524    0.677199    0.000024
     14          1           0        3.128641   -0.741718    0.894433
     15          8           0       -0.646371    1.202556   -1.171586
     16          8           0        1.723016    0.517414    0.000001
 ---------------------------------------------------------------------
                    Distance matrix (angstroms):
                    1          2          3          4          5
     1  C    0.000000
     2  H    1.101427   0.000000
     3  H    1.101427   1.788815   0.000000
     4  H    1.092424   1.786785   1.786785   0.000000
     5  C    2.364507   2.661995   2.661956   3.283065   0.000000
     6  H    2.649965   3.047790   2.470140   3.630923   1.101775
     7  H    2.650034   2.470262   3.047838   3.630993   1.101776
     8  C    3.672060   4.043160   4.043088   4.397432   1.520397
     9  H    3.960449   4.578967   4.210406   4.540716   2.157844
    10  H    4.503919   4.749342   4.743837   5.340530   2.157844
    11  C    5.401251   5.662460   6.056446   5.851109   3.672060
    12  H    5.662388   6.113023   6.242057   6.012898   4.043121
    13  H    5.851120   6.012988   6.639963   6.184501   4.397432
    14  H    6.056487   6.242178   6.615037   6.639988   4.043127
    15  O    1.416499   2.088349   2.088349   2.027813   1.418192
    16  O    4.041892   4.255426   4.722216   4.574819   2.370135
                    6          7          8          9         10
     6  H    0.000000
     7  H    1.781781   0.000000
     8  C    2.157844   2.157844   0.000000
     9  H    2.490366   3.070499   1.101776   0.000000
    10  H    2.480047   2.490366   1.101775   1.781781   0.000000
    11  C    4.503919   3.960475   2.364507   2.649995   2.650004
    12  H    4.749300   4.578957   2.661976   2.470197   3.047822
    13  H    5.340530   4.540746   3.283065   3.630956   3.630960
    14  H    4.743879   4.210479   2.661974   3.047805   2.470203
    15  O    2.084491   2.084492   2.370135   2.628641   3.329353
    16  O    3.329353   2.628641   1.418192   2.084491   2.084491
                   11         12         13         14         15
    11  C    0.000000
    12  H    1.101428   0.000000
    13  H    1.092424   1.786787   0.000000
    14  H    1.101428   1.788816   1.786786   0.000000
    15  O    4.041858   4.255345   4.574781   4.722219   0.000000
    16  O    1.416499   2.088350   2.027813   2.088350   2.730573
                   16
    16  O    0.000000
 Stoichiometry    C4H10O2
 Framework group  C1[X(C4H10O2)]
 Deg. of freedom    42
 Full point group                 C1      NOp   1
 Largest Abelian subgroup         C1      NOp   1
 Largest concise Abelian subgroup C1      NOp   1
                         Standard orientation:                         
 ---------------------------------------------------------------------
 Center     Atomic      Atomic             Coordinates (Angstroms)
 Number     Number       Type             X           Y           Z
 ---------------------------------------------------------------------
      1          6           0       -2.700348   -0.482748   -0.039043
      2          1           0       -2.839801   -0.532214   -1.130486
      3          1           0       -3.288698    0.362178    0.352219
      4          1           0       -3.064995   -1.409618    0.409660
      5          6           0       -0.727568    0.808051   -0.220334
      6          1           0       -1.230155    1.713320    0.156233
      7          1           0       -0.782898    0.822479   -1.320624
      8          6           0        0.727565    0.808051    0.220344
      9          1           0        0.782895    0.822413    1.320636
     10          1           0        1.230137    1.713351   -0.156167
     11          6           0        2.700339   -0.482760    0.039072
     12          1           0        2.839715   -0.532290    1.130523
     13          1           0        3.064994   -1.409613   -0.409659
     14          1           0        3.288737    0.362174   -0.352102
     15          8           0       -1.331092   -0.363505    0.303578
     16          8           0        1.331110   -0.363463   -0.303637
 ---------------------------------------------------------------------
 Rotational constants (GHZ):     10.4384138      1.5965459      1.4722357
 Standard basis: 6-31++G(d,p) (6D, 7F)
 There are   174 symmetry adapted cartesian basis functions of A   symmetry.
 There are   174 symmetry adapted basis functions of A   symmetry.
   174 basis functions,   272 primitive gaussians,   174 cartesian basis functions
    25 alpha electrons       25 beta electrons
       nuclear repulsion energy       256.9816866654 Hartrees.
 NAtoms=   16 NActive=   16 NUniq=   16 SFac= 1.00D+00 NAtFMM=   60 NAOKFM=F Big=F
 Integral buffers will be    131072 words long.
 Raffenetti 2 integral format.
 Two-electron integral symmetry is turned on.
 Nuclear repulsion after empirical dispersion term =      256.9725055625 Hartrees.
 One-electron integrals computed using PRISM.
 PrsmSu:  requested number of processors reduced to:   9 ShMem   1 Linda.
 NBasis=   174 RedAO= T EigKep=  4.98D-05  NBF=   174
 NBsUse=   174 1.00D-06 EigRej= -1.00D+00 NBFU=   174
 ExpMin= 3.60D-02 ExpMax= 5.48D+03 ExpMxC= 8.25D+02 IAcc=3 IRadAn=         5 AccDes= 0.00D+00
 Harris functional with IExCor=  402 and IRadAn=       5 diagonalized for initial guess.
 HarFok:  IExCor=  402 AccDes= 0.00D+00 IRadAn=         5 IDoV= 1 UseB2=F ITyADJ=14
 ICtDFT=  3500011 ScaDFX=  1.000000  1.000000  1.000000  1.000000
 FoFCou: FMM=F IPFlag=           0 FMFlag=      100000 FMFlg1=           0
         NFxFlg=           0 DoJE=T BraDBF=F KetDBF=T FulRan=T
         wScrn=  0.000000 ICntrl=     500 IOpCl=  0 I1Cent=   200000004 NGrid=           0
         NMat0=    1 NMatS0=      1 NMatT0=    0 NMatD0=    1 NMtDS0=    0 NMtDT0=    0
 Petite list used in FoFCou.
 Requested convergence on RMS density matrix=1.00D-08 within 128 cycles.
 Requested convergence on MAX density matrix=1.00D-06.
 Requested convergence on             energy=1.00D-06.
 No special actions if energy rises.
 SCF Done:  E(RB3LYP) =  -308.891037526     A.U. after   10 cycles
            NFock= 10  Conv=0.10D-07     -V/T= 2.0095

 **********************************************************************

            Population analysis using the SCF density.

 **********************************************************************

 Orbital symmetries:
       Occupied  (A) (A) (A) (A) (A) (A) (A) (A) (A) (A) (A) (A)
                 (A) (A) (A) (A) (A) (A) (A) (A) (A) (A) (A) (A)
                 (A)
       Virtual   (A) (A) (A) (A) (A) (A) (A) (A) (A) (A) (A) (A)
                 (A) (A) (A) (A) (A) (A) (A) (A) (A) (A) (A) (A)
                 (A) (A) (A) (A) (A) (A) (A) (A) (A) (A) (A) (A)
                 (A) (A) (A) (A) (A) (A) (A) (A) (A) (A) (A) (A)
                 (A) (A) (A) (A) (A) (A) (A) (A) (A) (A) (A) (A)
                 (A) (A) (A) (A) (A) (A) (A) (A) (A) (A) (A) (A)
                 (A) (A) (A) (A) (A) (A) (A) (A) (A) (A) (A) (A)
                 (A) (A) (A) (A) (A) (A) (A) (A) (A) (A) (A) (A)
                 (A) (A) (A) (A) (A) (A) (A) (A) (A) (A) (A) (A)
                 (A) (A) (A) (A) (A) (A) (A) (A) (A) (A) (A) (A)
                 (A) (A) (A) (A) (A) (A) (A) (A) (A) (A) (A) (A)
                 (A) (A) (A) (A) (A) (A) (A) (A) (A) (A) (A) (A)
                 (A) (A) (A) (A) (A)
 The electronic state is 1-A.
 Alpha  occ. eigenvalues --  -19.15585 -19.15585 -10.23753 -10.23730 -10.22943
 Alpha  occ. eigenvalues --  -10.22943  -1.04353  -1.02648  -0.76940  -0.69268
 Alpha  occ. eigenvalues --   -0.65879  -0.60313  -0.50397  -0.50054  -0.47565
 Alpha  occ. eigenvalues --   -0.45676  -0.45637  -0.42794  -0.40538  -0.38127
 Alpha  occ. eigenvalues --   -0.36443  -0.32400  -0.32131  -0.26469  -0.25620
 Alpha virt. eigenvalues --   -0.00746   0.00042   0.01233   0.01910   0.03400
 Alpha virt. eigenvalues --    0.03414   0.04052   0.04842   0.05345   0.05734
 Alpha virt. eigenvalues --    0.06686   0.07789   0.09508   0.09992   0.11870
 Alpha virt. eigenvalues --    0.11970   0.12253   0.12328   0.13376   0.13630
 Alpha virt. eigenvalues --    0.13829   0.14860   0.15739   0.16116   0.16277
 Alpha virt. eigenvalues --    0.16970   0.20136   0.21011   0.21434   0.22030
 Alpha virt. eigenvalues --    0.22143   0.23524   0.23902   0.25681   0.26414
 Alpha virt. eigenvalues --    0.27143   0.27741   0.29382   0.31241   0.32725
 Alpha virt. eigenvalues --    0.34095   0.34135   0.35748   0.36138   0.37054
 Alpha virt. eigenvalues --    0.38831   0.39501   0.43491   0.43800   0.64953
 Alpha virt. eigenvalues --    0.67950   0.70749   0.72292   0.72750   0.73358
 Alpha virt. eigenvalues --    0.73914   0.76202   0.77614   0.79504   0.83588
 Alpha virt. eigenvalues --    0.85398   0.89700   0.89709   0.95286   0.96788
 Alpha virt. eigenvalues --    1.00321   1.01901   1.06447   1.06999   1.09858
 Alpha virt. eigenvalues --    1.10079   1.15480   1.21838   1.23462   1.26745
 Alpha virt. eigenvalues --    1.27140   1.30900   1.31083   1.36028   1.38980
 Alpha virt. eigenvalues --    1.39527   1.44772   1.47620   1.48814   1.57456
 Alpha virt. eigenvalues --    1.60902   1.64463   1.67296   1.79137   1.80527
 Alpha virt. eigenvalues --    1.88958   1.90300   1.90922   1.91253   1.98609
 Alpha virt. eigenvalues --    1.98848   1.99501   2.01154   2.02973   2.02999
 Alpha virt. eigenvalues --    2.05336   2.06736   2.07644   2.09827   2.12143
 Alpha virt. eigenvalues --    2.12560   2.14259   2.15956   2.19736   2.20327
 Alpha virt. eigenvalues --    2.34780   2.39438   2.48359   2.55058   2.55954
 Alpha virt. eigenvalues --    2.59098   2.61707   2.62663   2.65674   2.66176
 Alpha virt. eigenvalues --    2.69123   2.70832   2.75167   2.76903   2.81742
 Alpha virt. eigenvalues --    2.82579   2.84063   2.88101   2.88476   2.97436
 Alpha virt. eigenvalues --    3.01299   3.04943   3.07713   3.22477   3.22488
 Alpha virt. eigenvalues --    3.29893   3.30951   3.40238   3.42479   3.45522
 Alpha virt. eigenvalues --    3.46770   3.47116   3.53074   4.27927   4.32571
 Alpha virt. eigenvalues --    4.45434   4.55045   4.57810   4.70026
          Condensed to atoms (all electrons):
               1          2          3          4          5          6
     1  C    5.018289   0.414346   0.411898   0.417183  -0.088460  -0.009324
     2  H    0.414346   0.590087  -0.057302  -0.018971  -0.012843  -0.019195
     3  H    0.411898  -0.057302   0.603466  -0.024494  -0.018106   0.024336
     4  H    0.417183  -0.018971  -0.024494   0.506303   0.009660   0.001704
     5  C   -0.088460  -0.012843  -0.018106   0.009660   5.165050   0.331743
     6  H   -0.009324  -0.019195   0.024336   0.001704   0.331743   0.714312
     7  H   -0.007904   0.022319  -0.014644   0.000002   0.407442  -0.113626
     8  C   -0.008764  -0.008585   0.006471  -0.001127   0.254298   0.032018
     9  H   -0.002222   0.001765  -0.004061  -0.001226  -0.063090  -0.029214
    10  H    0.000941   0.000779   0.000600   0.000816   0.032020   0.012421
    11  C    0.002490  -0.000260   0.000502  -0.000131  -0.008765   0.000941
    12  H   -0.000260  -0.000290   0.000125  -0.000156  -0.008585   0.000779
    13  H   -0.000131  -0.000156   0.000032   0.000009  -0.001127   0.000816
    14  H    0.000502   0.000125  -0.000001   0.000032   0.006470   0.000600
    15  O    0.071337  -0.050779  -0.057017  -0.050834   0.240533  -0.082997
    16  O   -0.001171   0.001200  -0.001101   0.000959  -0.079606   0.013805
               7          8          9         10         11         12
     1  C   -0.007904  -0.008764  -0.002222   0.000941   0.002490  -0.000260
     2  H    0.022319  -0.008585   0.001765   0.000779  -0.000260  -0.000290
     3  H   -0.014644   0.006471  -0.004061   0.000600   0.000502   0.000125
     4  H    0.000002  -0.001127  -0.001226   0.000816  -0.000131  -0.000156
     5  C    0.407442   0.254298  -0.063090   0.032020  -0.008765  -0.008585
     6  H   -0.113626   0.032018  -0.029214   0.012421   0.000941   0.000779
     7  H    0.685860  -0.063092   0.038481  -0.029213  -0.002222   0.001765
     8  C   -0.063092   5.165071   0.407439   0.331741  -0.088457  -0.012848
     9  H    0.038481   0.407439   0.685867  -0.113627  -0.007904   0.022321
    10  H   -0.029213   0.331741  -0.113627   0.714311  -0.009324  -0.019194
    11  C   -0.002222  -0.088457  -0.007904  -0.009324   5.018287   0.414349
    12  H    0.001765  -0.012848   0.022321  -0.019194   0.414349   0.590086
    13  H   -0.001226   0.009660   0.000002   0.001704   0.417182  -0.018970
    14  H   -0.004061  -0.018102  -0.014645   0.024335   0.411897  -0.057302
    15  O   -0.061705  -0.079613   0.000152   0.013804  -0.001172   0.001200
    16  O    0.000150   0.240526  -0.061705  -0.082998   0.071341  -0.050779
              13         14         15         16
     1  C   -0.000131   0.000502   0.071337  -0.001171
     2  H   -0.000156   0.000125  -0.050779   0.001200
     3  H    0.000032  -0.000001  -0.057017  -0.001101
     4  H    0.000009   0.000032  -0.050834   0.000959
     5  C   -0.001127   0.006470   0.240533  -0.079606
     6  H    0.000816   0.000600  -0.082997   0.013805
     7  H   -0.001226  -0.004061  -0.061705   0.000150
     8  C    0.009660  -0.018102  -0.079613   0.240526
     9  H    0.000002  -0.014645   0.000152  -0.061705
    10  H    0.001704   0.024335   0.013804  -0.082998
    11  C    0.417182   0.411897  -0.001172   0.071341
    12  H   -0.018970  -0.057302   0.001200  -0.050779
    13  H    0.506302  -0.024494   0.000959  -0.050832
    14  H   -0.024494   0.603465  -0.001101  -0.057017
    15  O    0.000959  -0.001101   8.372754  -0.011033
    16  O   -0.050832  -0.057017  -0.011033   8.372753
 Mulliken charges:
               1
     1  C   -0.218752
     2  H    0.137760
     3  H    0.129295
     4  H    0.160270
     5  C   -0.166635
     6  H    0.120882
     7  H    0.141672
     8  C   -0.166636
     9  H    0.141668
    10  H    0.120884
    11  C   -0.218753
    12  H    0.137760
    13  H    0.160270
    14  H    0.129297
    15  O   -0.304489
    16  O   -0.304491
 Sum of Mulliken charges =  -0.00000
 Mulliken charges with hydrogens summed into heavy atoms:
               1
     1  C    0.208573
     5  C    0.095918
     8  C    0.095916
    11  C    0.208573
    15  O   -0.304489
    16  O   -0.304491
 Electronic spatial extent (au):  <R**2>=            854.4727
 Charge=             -0.0000 electrons
 Dipole moment (field-independent basis, Debye):
    X=             -0.0000    Y=              1.6538    Z=              0.0001  Tot=              1.6538
 Quadrupole moment (field-independent basis, Debye-Ang):
   XX=            -31.3883   YY=            -38.2260   ZZ=            -39.6455
   XY=             -0.0001   XZ=              1.6064   YZ=             -0.0000
 Traceless Quadrupole moment (field-independent basis, Debye-Ang):
   XX=              5.0316   YY=             -1.8060   ZZ=             -3.2256
   XY=             -0.0001   XZ=              1.6064   YZ=             -0.0000
 Octapole moment (field-independent basis, Debye-Ang**2):
  XXX=             -0.0002  YYY=             -3.7058  ZZZ=             -0.0001  XYY=              0.0002
  XXY=             -7.6257  XXZ=              0.0002  XZZ=             -0.0002  YZZ=             -0.7326
  YYZ=             -0.0001  XYZ=             -0.3525
 Hexadecapole moment (field-independent basis, Debye-Ang**3):
 XXXX=           -862.4217 YYYY=           -158.3766 ZZZZ=            -82.5117 XXXY=              0.0004
 XXXZ=             -8.5337 YYYX=              0.0004 YYYZ=              0.0000 ZZZX=              0.5126
 ZZZY=             -0.0001 XXYY=           -169.7798 XXZZ=           -169.2449 YYZZ=            -40.8513
 XXYZ=              0.0001 YYXZ=             -5.6883 ZZXY=             -0.0002
 N-N= 2.569725055625D+02 E-N=-1.234600531026D+03  KE= 3.059858255359D+02
 PrsmSu:  requested number of processors reduced to:   9 ShMem   1 Linda.
 Calling FoFJK, ICntrl=      2127 FMM=F ISym2X=0 I1Cent= 0 IOpClX= 0 NMat=1 NMatS=1 NMatT=0.
 ***** Axes restored to original set *****
 -------------------------------------------------------------------
 Center     Atomic                   Forces (Hartrees/Bohr)
 Number     Number              X              Y              Z
 -------------------------------------------------------------------
      1        6           0.000904834   -0.000627739    0.000539154
      2        1           0.000009534    0.000198904   -0.000001708
      3        1          -0.000723296    0.000011661   -0.000140740
      4        1           0.000044054    0.000011090    0.000032576
      5        6           0.004709815   -0.000191063   -0.002611569
      6        1          -0.000772115   -0.001228373   -0.000225656
      7        1           0.000578129    0.001271023   -0.000420401
      8        6          -0.001649605    0.005079592   -0.000717787
      9        1           0.000716335    0.000797572   -0.000988520
     10        1          -0.000278734   -0.000450850    0.001369348
     11        6          -0.001193983    0.000165238   -0.000223547
     12        1           0.000129452    0.000023700   -0.000149210
     13        1          -0.000032938    0.000006614   -0.000044643
     14        1           0.000490354   -0.000383523    0.000393608
     15        8          -0.005039862   -0.000806912    0.000564209
     16        8           0.002108026   -0.003876932    0.002624886
 -------------------------------------------------------------------
 Cartesian Forces:  Max     0.005079592 RMS     0.001604383

 GradGradGradGradGradGradGradGradGradGradGradGradGradGradGradGradGradGrad
 Berny optimization.
 FormGI is forming the generalized inverse of G from B-inverse, IUseBI=4.
 Internal  Forces:  Max     0.008013899 RMS     0.001847091
 Search for a local minimum.
 Step number   1 out of a maximum of   72
 All quantities printed in internal units (Hartrees-Bohrs-Radians)
 Mixed Optimization -- RFO/linear search
 Second derivative matrix not updated -- first step.
 ITU=  0
     Eigenvalues ---    0.00496   0.01451   0.01451   0.01474   0.01474
     Eigenvalues ---    0.05448   0.05448   0.06031   0.06031   0.10073
     Eigenvalues ---    0.10073   0.10529   0.10529   0.11033   0.11033
     Eigenvalues ---    0.13600   0.13600   0.16000   0.16000   0.16000
     Eigenvalues ---    0.16000   0.16000   0.16000   0.21971   0.21971
     Eigenvalues ---    0.25000   0.25000   0.30328   0.33487   0.33487
     Eigenvalues ---    0.33487   0.33487   0.33525   0.33525   0.33525
     Eigenvalues ---    0.33525   0.34534   0.34534   0.42734   0.42734
     Eigenvalues ---    0.42992   0.42992
 RFO step:  Lambda=-2.24699351D-03 EMin= 4.96136012D-03
 Linear search not attempted -- first point.
 Iteration  1 RMS(Cart)=  0.10462678 RMS(Int)=  0.00342077
 Iteration  2 RMS(Cart)=  0.00428537 RMS(Int)=  0.00009823
 Iteration  3 RMS(Cart)=  0.00000762 RMS(Int)=  0.00009814
 Iteration  4 RMS(Cart)=  0.00000000 RMS(Int)=  0.00009814
 Variable       Old X    -DE/DX   Delta X   Delta X   Delta X     New X
                                 (Linear)    (Quad)   (Total)
    R1        2.08139   0.00012   0.00000   0.00037   0.00037   2.08176
    R2        2.08140   0.00060   0.00000   0.00178   0.00178   2.08317
    R3        2.06438  -0.00002   0.00000  -0.00005  -0.00005   2.06433
    R4        2.67680  -0.00046   0.00000  -0.00106  -0.00106   2.67573
    R5        2.08205   0.00136   0.00000   0.00404   0.00404   2.08610
    R6        2.08205   0.00035   0.00000   0.00105   0.00105   2.08310
    R7        2.87313  -0.00048   0.00000  -0.00156  -0.00156   2.87157
    R8        2.67999  -0.00150   0.00000  -0.00349  -0.00349   2.67651
    R9        2.08205   0.00035   0.00000   0.00105   0.00105   2.08310
   R10        2.08205   0.00136   0.00000   0.00405   0.00405   2.08610
   R11        2.67999  -0.00150   0.00000  -0.00349  -0.00349   2.67651
   R12        2.08140   0.00012   0.00000   0.00037   0.00037   2.08176
   R13        2.06438  -0.00002   0.00000  -0.00005  -0.00005   2.06433
   R14        2.08140   0.00060   0.00000   0.00178   0.00178   2.08317
   R15        2.67680  -0.00046   0.00000  -0.00106  -0.00106   2.67573
    A1        1.89529  -0.00012   0.00000  -0.00006  -0.00007   1.89523
    A2        1.90355  -0.00016   0.00000  -0.00177  -0.00178   1.90178
    A3        1.94535  -0.00001   0.00000  -0.00004  -0.00005   1.94530
    A4        1.90355  -0.00020   0.00000  -0.00120  -0.00120   1.90236
    A5        1.94535   0.00071   0.00000   0.00478   0.00478   1.95013
    A6        1.86998  -0.00024   0.00000  -0.00188  -0.00188   1.86809
    A7        1.88352   0.00131   0.00000   0.00160   0.00152   1.88504
    A8        1.91507  -0.00240   0.00000  -0.01526  -0.01510   1.89998
    A9        1.93732  -0.00337   0.00000  -0.02301  -0.02285   1.91447
   A10        1.91507  -0.00161   0.00000  -0.00091  -0.00114   1.91393
   A11        1.93732  -0.00206   0.00000  -0.00014  -0.00045   1.93687
   A12        1.87572   0.00801   0.00000   0.03734   0.03729   1.91301
   A13        1.91507  -0.00161   0.00000  -0.00091  -0.00114   1.91393
   A14        1.91508  -0.00240   0.00000  -0.01526  -0.01510   1.89998
   A15        1.87572   0.00801   0.00000   0.03734   0.03729   1.91301
   A16        1.88352   0.00131   0.00000   0.00160   0.00152   1.88504
   A17        1.93732  -0.00206   0.00000  -0.00014  -0.00044   1.93687
   A18        1.93732  -0.00337   0.00000  -0.02301  -0.02285   1.91447
   A19        1.90356  -0.00016   0.00000  -0.00178  -0.00178   1.90178
   A20        1.89529  -0.00012   0.00000  -0.00006  -0.00007   1.89523
   A21        1.94535  -0.00001   0.00000  -0.00004  -0.00005   1.94530
   A22        1.90355  -0.00020   0.00000  -0.00120  -0.00120   1.90236
   A23        1.86998  -0.00024   0.00000  -0.00188  -0.00188   1.86809
   A24        1.94535   0.00071   0.00000   0.00479   0.00478   1.95013
   A25        1.97311  -0.00047   0.00000  -0.00188  -0.00188   1.97123
   A26        1.97311  -0.00047   0.00000  -0.00188  -0.00188   1.97123
    D1        1.06041   0.00024   0.00000   0.00268   0.00268   1.06309
    D2       -1.06032  -0.00010   0.00000  -0.00057  -0.00058  -1.06090
    D3       -3.14155  -0.00012   0.00000  -0.00068  -0.00068   3.14096
    D4        1.04720   0.00031   0.00000   0.12500   0.12490   1.17210
    D5       -1.01944   0.00112   0.00000   0.13278   0.13269  -0.88675
    D6       -3.12771   0.00173   0.00000   0.14689   0.14695  -2.98077
    D7        3.11383  -0.00051   0.00000   0.11722   0.11711  -3.05224
    D8        1.04720   0.00031   0.00000   0.12500   0.12490   1.17210
    D9       -1.06108   0.00092   0.00000   0.13912   0.13916  -0.92192
   D10       -1.06108   0.00092   0.00000   0.13911   0.13916  -0.92192
   D11       -3.12771   0.00173   0.00000   0.14689   0.14695  -2.98077
   D12        1.04720   0.00235   0.00000   0.16101   0.16120   1.20840
   D13        1.04732  -0.00045   0.00000   0.01255   0.01268   1.06000
   D14       -1.04747   0.00150   0.00000   0.02594   0.02598  -1.02149
   D15        3.14152  -0.00034   0.00000   0.00380   0.00363  -3.13804
   D16       -3.14158  -0.00034   0.00000   0.00377   0.00360  -3.13798
   D17       -1.04738   0.00150   0.00000   0.02591   0.02595  -1.02143
   D18        1.04740  -0.00045   0.00000   0.01253   0.01266   1.06006
   D19        1.06037   0.00024   0.00000   0.00269   0.00270   1.06307
   D20       -3.14159  -0.00012   0.00000  -0.00067  -0.00066   3.14093
   D21       -1.06037  -0.00010   0.00000  -0.00056  -0.00056  -1.06093
         Item               Value     Threshold  Converged?
 Maximum Force            0.008014     0.000450     NO 
 RMS     Force            0.001847     0.000300     NO 
 Maximum Displacement     0.306464     0.001800     NO 
 RMS     Displacement     0.103992     0.001200     NO 
 Predicted change in Energy=-1.324455D-03
 GradGradGradGradGradGradGradGradGradGradGradGradGradGradGradGradGradGrad

                          Input orientation:                          
 ---------------------------------------------------------------------
 Center     Atomic      Atomic             Coordinates (Angstroms)
 Number     Number       Type             X           Y           Z
 ---------------------------------------------------------------------
      1          6           0       -1.887265    1.989230   -1.294846
      2          1           0       -1.919417    2.729298   -0.479471
      3          1           0       -2.797928    1.370131   -1.243599
      4          1           0       -1.868688    2.515867   -2.251736
      5          6           0       -0.609234    0.458648   -0.030566
      6          1           0       -1.466567   -0.231397    0.055740
      7          1           0       -0.619052    1.125690    0.846980
      8          6           0        0.675407   -0.352938   -0.041496
      9          1           0        0.727831   -0.951916   -0.965404
     10          1           0        0.665540   -1.048275    0.815849
     11          6           0        3.027240   -0.168087    0.054244
     12          1           0        3.170353   -0.730794   -0.881945
     13          1           0        3.811477    0.587800    0.137524
     14          1           0        3.112198   -0.868173    0.901521
     15          8           0       -0.712928    1.200606   -1.232558
     16          8           0        1.788166    0.517117    0.062475
 ---------------------------------------------------------------------
                    Distance matrix (angstroms):
                    1          2          3          4          5
     1  C    0.000000
     2  H    1.101622   0.000000
     3  H    1.102368   1.789695   0.000000
     4  H    1.092396   1.785790   1.786767   0.000000
     5  C    2.361027   2.659690   2.663200   3.279020   0.000000
     6  H    2.632917   3.042571   2.454729   3.610208   1.103916
     7  H    2.634670   2.453973   3.029484   3.618870   1.102329
     8  C    3.691061   4.052791   4.059320   4.425791   1.519570
     9  H    3.949379   4.560196   4.230871   4.519079   2.156700
    10  H    4.494250   4.757091   4.699534   5.341863   2.147622
    11  C    5.534114   5.757526   6.163042   6.040799   3.691060
    12  H    5.757475   6.167656   6.337591   6.148908   4.052764
    13  H    6.040807   6.148971   6.797336   6.456801   4.425790
    14  H    6.163069   6.337672   6.673915   6.797351   4.059347
    15  O    1.415936   2.087979   2.091909   2.025936   1.416347
    16  O    4.185479   4.351279   4.844143   4.766881   2.399917
                    6          7          8          9         10
     6  H    0.000000
     7  H    1.784945   0.000000
     8  C    2.147622   2.156700   0.000000
     9  H    2.525324   3.068432   1.102329   0.000000
    10  H    2.406436   2.525325   1.103916   1.784945   0.000000
    11  C    4.494253   3.949396   2.361028   2.634644   2.632945
    12  H    4.757066   4.560187   2.659678   2.453931   3.042596
    13  H    5.341865   4.519097   3.279020   3.618847   3.610233
    14  H    4.699566   4.230921   2.663212   3.029461   2.454774
    15  O    2.068408   2.083004   2.399918   2.603941   3.339702
    16  O    3.339701   2.603941   1.416347   2.083004   2.068408
                   11         12         13         14         15
    11  C    0.000000
    12  H    1.101622   0.000000
    13  H    1.092396   1.785791   0.000000
    14  H    1.102368   1.789695   1.786768   0.000000
    15  O    4.185455   4.351219   4.766854   4.844144   0.000000
    16  O    1.415936   2.087978   2.025936   2.091910   2.898231
                   16
    16  O    0.000000
 Stoichiometry    C4H10O2
 Framework group  C1[X(C4H10O2)]
 Deg. of freedom    42
 Full point group                 C1      NOp   1
 Largest Abelian subgroup         C1      NOp   1
 Largest concise Abelian subgroup C1      NOp   1
                         Standard orientation:                         
 ---------------------------------------------------------------------
 Center     Atomic      Atomic             Coordinates (Angstroms)
 Number     Number       Type             X           Y           Z
 ---------------------------------------------------------------------
      1          6           0       -2.766545   -0.428508   -0.053405
      2          1           0       -2.863786   -0.549275   -1.144061
      3          1           0       -3.327416    0.470013    0.252043
      4          1           0       -3.198223   -1.302097    0.440382
      5          6           0       -0.722880    0.739952   -0.233917
      6          1           0       -1.200388    1.683577    0.082607
      7          1           0       -0.756457    0.693616   -1.334760
      8          6           0        0.722878    0.739952    0.233927
      9          1           0        0.756455    0.693565    1.334767
     10          1           0        1.200374    1.683598   -0.082555
     11          6           0        2.766538   -0.428519    0.053423
     12          1           0        2.863726   -0.549343    1.144077
     13          1           0        3.198223   -1.302092   -0.440388
     14          1           0        3.327441    0.470007   -0.251954
     15          8           0       -1.408439   -0.358069    0.340884
     16          8           0        1.408452   -0.358034   -0.340924
 ---------------------------------------------------------------------
 Rotational constants (GHZ):     11.3381138      1.5082601      1.4195256
 Standard basis: 6-31++G(d,p) (6D, 7F)
 There are   174 symmetry adapted cartesian basis functions of A   symmetry.
 There are   174 symmetry adapted basis functions of A   symmetry.
   174 basis functions,   272 primitive gaussians,   174 cartesian basis functions
    25 alpha electrons       25 beta electrons
       nuclear repulsion energy       255.3557251237 Hartrees.
 NAtoms=   16 NActive=   16 NUniq=   16 SFac= 1.00D+00 NAtFMM=   60 NAOKFM=F Big=F
 Integral buffers will be    131072 words long.
 Raffenetti 2 integral format.
 Two-electron integral symmetry is turned on.
 Nuclear repulsion after empirical dispersion term =      255.3466167657 Hartrees.
 One-electron integrals computed using PRISM.
 PrsmSu:  requested number of processors reduced to:   9 ShMem   1 Linda.
 NBasis=   174 RedAO= T EigKep=  4.34D-05  NBF=   174
 NBsUse=   174 1.00D-06 EigRej= -1.00D+00 NBFU=   174
 Initial guess from the checkpoint file:  "2oxygen_gauche.chk"
 B after Tr=     0.000000    0.000000   -0.000000
         Rot=    0.999997    0.000002    0.002642    0.000000 Ang=   0.30 deg.
 ExpMin= 3.60D-02 ExpMax= 5.48D+03 ExpMxC= 8.25D+02 IAcc=3 IRadAn=         5 AccDes= 0.00D+00
 Harris functional with IExCor=  402 and IRadAn=       5 diagonalized for initial guess.
 HarFok:  IExCor=  402 AccDes= 0.00D+00 IRadAn=         5 IDoV= 1 UseB2=F ITyADJ=14
 ICtDFT=  3500011 ScaDFX=  1.000000  1.000000  1.000000  1.000000
 FoFCou: FMM=F IPFlag=           0 FMFlag=      100000 FMFlg1=           0
         NFxFlg=           0 DoJE=T BraDBF=F KetDBF=T FulRan=T
         wScrn=  0.000000 ICntrl=     500 IOpCl=  0 I1Cent=   200000004 NGrid=           0
         NMat0=    1 NMatS0=      1 NMatT0=    0 NMatD0=    1 NMtDS0=    0 NMtDT0=    0
 Petite list used in FoFCou.
 Requested convergence on RMS density matrix=1.00D-08 within 128 cycles.
 Requested convergence on MAX density matrix=1.00D-06.
 Requested convergence on             energy=1.00D-06.
 No special actions if energy rises.
 SCF Done:  E(RB3LYP) =  -308.892290503     A.U. after    9 cycles
            NFock=  9  Conv=0.83D-08     -V/T= 2.0095
 PrsmSu:  requested number of processors reduced to:   9 ShMem   1 Linda.
 Calling FoFJK, ICntrl=      2127 FMM=F ISym2X=0 I1Cent= 0 IOpClX= 0 NMat=1 NMatS=1 NMatT=0.
 ***** Axes restored to original set *****
 -------------------------------------------------------------------
 Center     Atomic                   Forces (Hartrees/Bohr)
 Number     Number              X              Y              Z
 -------------------------------------------------------------------
      1        6           0.000793511    0.000368534    0.000116792
      2        1          -0.000080317   -0.000025846   -0.000029616
      3        1           0.000117745   -0.000207330    0.000077286
      4        1          -0.000086574    0.000005987   -0.000010624
      5        6           0.001078632   -0.001592823   -0.001086903
      6        1           0.000346863   -0.000912192    0.001188982
      7        1           0.000706252    0.000450994   -0.000403389
      8        6          -0.001198185    0.001401876    0.001217517
      9        1           0.000081528    0.000807713   -0.000453978
     10        1          -0.001362050   -0.000709771   -0.000084363
     11        6          -0.000263528    0.000478067   -0.000693061
     12        1           0.000042672   -0.000034370    0.000070636
     13        1           0.000058970   -0.000050133    0.000040773
     14        1          -0.000243456    0.000006581    0.000059390
     15        8          -0.000037457   -0.000126256   -0.000236997
     16        8           0.000045395    0.000138969    0.000227556
 -------------------------------------------------------------------
 Cartesian Forces:  Max     0.001592823 RMS     0.000613875

 GradGradGradGradGradGradGradGradGradGradGradGradGradGradGradGradGradGrad
 Berny optimization.
 Using GEDIIS/GDIIS optimizer.
 FormGI is forming the generalized inverse of G from B-inverse, IUseBI=4.
 Internal  Forces:  Max     0.003491716 RMS     0.000601678
 Search for a local minimum.
 Step number   2 out of a maximum of   72
 All quantities printed in internal units (Hartrees-Bohrs-Radians)
 Mixed Optimization -- En-DIIS/RFO-DIIS
 Update second derivatives using D2CorX and points    1    2
 DE= -1.25D-03 DEPred=-1.32D-03 R= 9.46D-01
 TightC=F SS=  1.41D+00  RLast= 4.20D-01 DXNew= 5.0454D-01 1.2606D+00
 Trust test= 9.46D-01 RLast= 4.20D-01 DXMaxT set to 5.05D-01
 ITU=  1  0
 Use linear search instead of GDIIS.
     Eigenvalues ---    0.00442   0.01432   0.01451   0.01474   0.01474
     Eigenvalues ---    0.05230   0.05647   0.06034   0.06047   0.10045
     Eigenvalues ---    0.10056   0.10534   0.10541   0.11256   0.11468
     Eigenvalues ---    0.13758   0.13761   0.15996   0.16000   0.16000
     Eigenvalues ---    0.16000   0.16000   0.16056   0.22020   0.22698
     Eigenvalues ---    0.24994   0.25000   0.31664   0.33413   0.33487
     Eigenvalues ---    0.33487   0.33495   0.33524   0.33525   0.33525
     Eigenvalues ---    0.33543   0.34534   0.34534   0.42721   0.42734
     Eigenvalues ---    0.42992   0.43022
 RFO step:  Lambda=-4.29106857D-04 EMin= 4.42310527D-03
 Quartic linear search produced a step of  0.19755.
 Iteration  1 RMS(Cart)=  0.04669942 RMS(Int)=  0.00125852
 Iteration  2 RMS(Cart)=  0.00128158 RMS(Int)=  0.00002479
 Iteration  3 RMS(Cart)=  0.00000124 RMS(Int)=  0.00002479
 Iteration  4 RMS(Cart)=  0.00000000 RMS(Int)=  0.00002479
 Variable       Old X    -DE/DX   Delta X   Delta X   Delta X     New X
                                 (Linear)    (Quad)   (Total)
    R1        2.08176  -0.00004   0.00007  -0.00016  -0.00009   2.08168
    R2        2.08317   0.00002   0.00035  -0.00006   0.00030   2.08347
    R3        2.06433   0.00001  -0.00001   0.00004   0.00003   2.06436
    R4        2.67573  -0.00055  -0.00021  -0.00141  -0.00162   2.67411
    R5        2.08610   0.00039   0.00080   0.00108   0.00187   2.08797
    R6        2.08310  -0.00005   0.00021  -0.00027  -0.00007   2.08303
    R7        2.87157  -0.00349  -0.00031  -0.01343  -0.01374   2.85783
    R8        2.67651   0.00003  -0.00069   0.00034  -0.00035   2.67616
    R9        2.08310  -0.00005   0.00021  -0.00027  -0.00007   2.08303
   R10        2.08610   0.00039   0.00080   0.00108   0.00187   2.08797
   R11        2.67651   0.00003  -0.00069   0.00034  -0.00035   2.67616
   R12        2.08176  -0.00004   0.00007  -0.00016  -0.00009   2.08168
   R13        2.06433   0.00001  -0.00001   0.00004   0.00003   2.06436
   R14        2.08317   0.00002   0.00035  -0.00006   0.00030   2.08347
   R15        2.67573  -0.00055  -0.00021  -0.00141  -0.00162   2.67411
    A1        1.89523   0.00003  -0.00001  -0.00023  -0.00024   1.89498
    A2        1.90178   0.00001  -0.00035   0.00078   0.00043   1.90220
    A3        1.94530   0.00017  -0.00001   0.00128   0.00127   1.94657
    A4        1.90236   0.00007  -0.00024   0.00049   0.00025   1.90260
    A5        1.95013  -0.00046   0.00094  -0.00402  -0.00307   1.94706
    A6        1.86809   0.00020  -0.00037   0.00182   0.00145   1.86954
    A7        1.88504   0.00026   0.00030   0.00293   0.00319   1.88823
    A8        1.89998  -0.00057  -0.00298  -0.00252  -0.00549   1.89449
    A9        1.91447   0.00115  -0.00451   0.01628   0.01181   1.92627
   A10        1.91393  -0.00028  -0.00023  -0.00683  -0.00713   1.90681
   A11        1.93687   0.00009  -0.00009  -0.00302  -0.00319   1.93368
   A12        1.91301  -0.00064   0.00737  -0.00667   0.00069   1.91370
   A13        1.91393  -0.00028  -0.00023  -0.00683  -0.00713   1.90681
   A14        1.89998  -0.00057  -0.00298  -0.00252  -0.00549   1.89449
   A15        1.91301  -0.00064   0.00737  -0.00666   0.00069   1.91370
   A16        1.88504   0.00026   0.00030   0.00293   0.00319   1.88823
   A17        1.93687   0.00009  -0.00009  -0.00302  -0.00319   1.93369
   A18        1.91447   0.00115  -0.00451   0.01628   0.01181   1.92627
   A19        1.90178   0.00001  -0.00035   0.00078   0.00043   1.90220
   A20        1.89523   0.00003  -0.00001  -0.00023  -0.00024   1.89498
   A21        1.94530   0.00017  -0.00001   0.00128   0.00127   1.94657
   A22        1.90236   0.00007  -0.00024   0.00049   0.00025   1.90260
   A23        1.86809   0.00020  -0.00037   0.00182   0.00145   1.86954
   A24        1.95013  -0.00046   0.00094  -0.00402  -0.00307   1.94706
   A25        1.97123  -0.00010  -0.00037  -0.00032  -0.00070   1.97054
   A26        1.97123  -0.00010  -0.00037  -0.00032  -0.00069   1.97054
    D1        1.06309  -0.00009   0.00053   0.00157   0.00210   1.06519
    D2       -1.06090   0.00008  -0.00011   0.00380   0.00368  -1.05721
    D3        3.14096   0.00014  -0.00013   0.00437   0.00424  -3.13799
    D4        1.17210   0.00074   0.02467   0.07414   0.09879   1.27089
    D5       -0.88675   0.00092   0.02621   0.07602   0.10219  -0.78456
    D6       -2.98077   0.00026   0.02903   0.06169   0.09073  -2.89004
    D7       -3.05224   0.00055   0.02314   0.07227   0.09539  -2.95685
    D8        1.17210   0.00074   0.02467   0.07414   0.09879   1.27089
    D9       -0.92192   0.00007   0.02749   0.05982   0.08733  -0.83459
   D10       -0.92192   0.00007   0.02749   0.05982   0.08733  -0.83459
   D11       -2.98077   0.00026   0.02903   0.06169   0.09073  -2.89004
   D12        1.20840  -0.00041   0.03185   0.04737   0.07926   1.28767
   D13        1.06000   0.00078   0.00251   0.02376   0.02628   1.08628
   D14       -1.02149  -0.00033   0.00513   0.01159   0.01673  -1.00476
   D15       -3.13804   0.00038   0.00072   0.02654   0.02724  -3.11081
   D16       -3.13798   0.00038   0.00071   0.02652   0.02721  -3.11077
   D17       -1.02143  -0.00033   0.00513   0.01157   0.01670  -1.00473
   D18        1.06006   0.00078   0.00250   0.02373   0.02626   1.08632
   D19        1.06307  -0.00009   0.00053   0.00158   0.00211   1.06518
   D20        3.14093   0.00014  -0.00013   0.00438   0.00425  -3.13800
   D21       -1.06093   0.00008  -0.00011   0.00381   0.00370  -1.05723
         Item               Value     Threshold  Converged?
 Maximum Force            0.003492     0.000450     NO 
 RMS     Force            0.000602     0.000300     NO 
 Maximum Displacement     0.115143     0.001800     NO 
 RMS     Displacement     0.046715     0.001200     NO 
 Predicted change in Energy=-2.289696D-04
 GradGradGradGradGradGradGradGradGradGradGradGradGradGradGradGradGradGrad

                          Input orientation:                          
 ---------------------------------------------------------------------
 Center     Atomic      Atomic             Coordinates (Angstroms)
 Number     Number       Type             X           Y           Z
 ---------------------------------------------------------------------
      1          6           0       -1.891293    1.978562   -1.300147
      2          1           0       -1.875646    2.747974   -0.511965
      3          1           0       -2.811370    1.381233   -1.189616
      4          1           0       -1.900827    2.469503   -2.275980
      5          6           0       -0.602880    0.461914   -0.032254
      6          1           0       -1.454347   -0.228099    0.108134
      7          1           0       -0.581723    1.160212    0.820380
      8          6           0        0.674716   -0.347163   -0.045980
      9          1           0        0.741773   -0.904536   -0.994607
     10          1           0        0.636639   -1.078234    0.781611
     11          6           0        3.024805   -0.167738    0.066582
     12          1           0        3.172612   -0.675972   -0.899504
     13          1           0        3.809905    0.580321    0.198456
     14          1           0        3.102634   -0.915987    0.872576
     15          8           0       -0.734473    1.164844   -1.254584
     16          8           0        1.786608    0.515973    0.109613
 ---------------------------------------------------------------------
                    Distance matrix (angstroms):
                    1          2          3          4          5
     1  C    0.000000
     2  H    1.101577   0.000000
     3  H    1.102525   1.789629   0.000000
     4  H    1.092413   1.786038   1.787067   0.000000
     5  C    2.359614   2.660099   2.657454   3.278626   0.000000
     6  H    2.653965   3.069043   2.472977   3.627727   1.104908
     7  H    2.623223   2.443433   3.010026   3.611332   1.102295
     8  C    3.683250   4.037495   4.055620   4.420399   1.512299
     9  H    3.916458   4.519364   4.229373   4.473185   2.145087
    10  H    4.479749   4.756551   4.671560   5.326728   2.137952
    11  C    5.535573   5.731536   6.167518   6.058422   3.683250
    12  H    5.731509   6.112160   6.334374   6.126049   4.037480
    13  H    6.058428   6.126084   6.812451   6.504176   4.420399
    14  H    6.167531   6.334416   6.671229   6.812457   4.055634
    15  O    1.415077   2.088075   2.089149   2.026269   1.416163
    16  O    4.201612   4.333623   4.855726   4.806715   2.394307
                    6          7          8          9         10
     6  H    0.000000
     7  H    1.787784   0.000000
     8  C    2.137952   2.145088   0.000000
     9  H    2.548833   3.051066   1.102295   0.000000
    10  H    2.355530   2.548833   1.104908   1.787785   0.000000
    11  C    4.479751   3.916466   2.359615   2.623210   2.653980
    12  H    4.756540   4.519359   2.660094   2.443413   3.069059
    13  H    5.326730   4.473194   3.278626   3.611321   3.627740
    14  H    4.671578   4.229399   2.657459   3.010011   2.473001
    15  O    2.077380   2.080583   2.394307   2.555235   3.325272
    16  O    3.325272   2.555235   1.416163   2.080583   2.077380
                   11         12         13         14         15
    11  C    0.000000
    12  H    1.101576   0.000000
    13  H    1.092413   1.786038   0.000000
    14  H    1.102525   1.789629   1.787067   0.000000
    15  O    4.201598   4.333590   4.806700   4.855724   0.000000
    16  O    1.415077   2.088075   2.026269   2.089149   2.939034
                   16
    16  O    0.000000
 Stoichiometry    C4H10O2
 Framework group  C1[X(C4H10O2)]
 Deg. of freedom    42
 Full point group                 C1      NOp   1
 Largest Abelian subgroup         C1      NOp   1
 Largest concise Abelian subgroup C1      NOp   1
                         Standard orientation:                         
 ---------------------------------------------------------------------
 Center     Atomic      Atomic             Coordinates (Angstroms)
 Number     Number       Type             X           Y           Z
 ---------------------------------------------------------------------
      1          6           0       -2.767069   -0.428690   -0.063114
      2          1           0       -2.832164   -0.606563   -1.148285
      3          1           0       -3.330911    0.487822    0.176987
      4          1           0       -3.218940   -1.272629    0.463140
      5          6           0       -0.717192    0.726579   -0.239576
      6          1           0       -1.177415    1.694529    0.028917
      7          1           0       -0.733603    0.630603   -1.337562
      8          6           0        0.717191    0.726579    0.239583
      9          1           0        0.733602    0.630574    1.337566
     10          1           0        1.177406    1.694539   -0.028885
     11          6           0        2.767065   -0.428696    0.063123
     12          1           0        2.832132   -0.606606    1.148289
     13          1           0        3.218940   -1.272623   -0.463149
     14          1           0        3.330923    0.487817   -0.176935
     15          8           0       -1.422457   -0.340141    0.368885
     16          8           0        1.422465   -0.340120   -0.368906
 ---------------------------------------------------------------------
 Rotational constants (GHZ):     11.3953268      1.5009067      1.4195898
 Standard basis: 6-31++G(d,p) (6D, 7F)
 There are   174 symmetry adapted cartesian basis functions of A   symmetry.
 There are   174 symmetry adapted basis functions of A   symmetry.
   174 basis functions,   272 primitive gaussians,   174 cartesian basis functions
    25 alpha electrons       25 beta electrons
       nuclear repulsion energy       255.4208796530 Hartrees.
 NAtoms=   16 NActive=   16 NUniq=   16 SFac= 1.00D+00 NAtFMM=   60 NAOKFM=F Big=F
 Integral buffers will be    131072 words long.
 Raffenetti 2 integral format.
 Two-electron integral symmetry is turned on.
 Nuclear repulsion after empirical dispersion term =      255.4117498436 Hartrees.
 One-electron integrals computed using PRISM.
 PrsmSu:  requested number of processors reduced to:   9 ShMem   1 Linda.
 NBasis=   174 RedAO= T EigKep=  4.16D-05  NBF=   174
 NBsUse=   174 1.00D-06 EigRej= -1.00D+00 NBFU=   174
 Initial guess from the checkpoint file:  "2oxygen_gauche.chk"
 B after Tr=    -0.000000    0.000000    0.000000
         Rot=    0.999999    0.000003    0.001218    0.000000 Ang=   0.14 deg.
 ExpMin= 3.60D-02 ExpMax= 5.48D+03 ExpMxC= 8.25D+02 IAcc=3 IRadAn=         5 AccDes= 0.00D+00
 Harris functional with IExCor=  402 and IRadAn=       5 diagonalized for initial guess.
 HarFok:  IExCor=  402 AccDes= 0.00D+00 IRadAn=         5 IDoV= 1 UseB2=F ITyADJ=14
 ICtDFT=  3500011 ScaDFX=  1.000000  1.000000  1.000000  1.000000
 FoFCou: FMM=F IPFlag=           0 FMFlag=      100000 FMFlg1=           0
         NFxFlg=           0 DoJE=T BraDBF=F KetDBF=T FulRan=T
         wScrn=  0.000000 ICntrl=     500 IOpCl=  0 I1Cent=   200000004 NGrid=           0
         NMat0=    1 NMatS0=      1 NMatT0=    0 NMatD0=    1 NMtDS0=    0 NMtDT0=    0
 Petite list used in FoFCou.
 Requested convergence on RMS density matrix=1.00D-08 within 128 cycles.
 Requested convergence on MAX density matrix=1.00D-06.
 Requested convergence on             energy=1.00D-06.
 No special actions if energy rises.
 SCF Done:  E(RB3LYP) =  -308.892537279     A.U. after    9 cycles
            NFock=  9  Conv=0.94D-08     -V/T= 2.0095
 PrsmSu:  requested number of processors reduced to:   9 ShMem   1 Linda.
 Calling FoFJK, ICntrl=      2127 FMM=F ISym2X=0 I1Cent= 0 IOpClX= 0 NMat=1 NMatS=1 NMatT=0.
 ***** Axes restored to original set *****
 -------------------------------------------------------------------
 Center     Atomic                   Forces (Hartrees/Bohr)
 Number     Number              X              Y              Z
 -------------------------------------------------------------------
      1        6          -0.000066598    0.000252420   -0.000057304
      2        1           0.000025112   -0.000028863   -0.000018710
      3        1           0.000027347    0.000105967   -0.000010383
      4        1          -0.000047574   -0.000003630   -0.000008413
      5        6          -0.000643028   -0.000152593    0.000301558
      6        1          -0.000215534    0.000677429   -0.000121965
      7        1          -0.000136738    0.000049185   -0.000059460
      8        6           0.000130007   -0.000666984    0.000257012
      9        1           0.000139490   -0.000044732    0.000056396
     10        1           0.000637587   -0.000003266   -0.000337359
     11        6           0.000235076    0.000016769   -0.000125785
     12        1          -0.000025358    0.000028415    0.000018921
     13        1           0.000028903   -0.000026193    0.000028777
     14        1           0.000060434    0.000034248   -0.000085152
     15        8          -0.000111572   -0.000308973   -0.000231560
     16        8          -0.000037553    0.000070801    0.000393427
 -------------------------------------------------------------------
 Cartesian Forces:  Max     0.000677429 RMS     0.000234673

 GradGradGradGradGradGradGradGradGradGradGradGradGradGradGradGradGradGrad
 Berny optimization.
 Using GEDIIS/GDIIS optimizer.
 FormGI is forming the generalized inverse of G from B-inverse, IUseBI=4.
 Internal  Forces:  Max     0.001301302 RMS     0.000316638
 Search for a local minimum.
 Step number   3 out of a maximum of   72
 All quantities printed in internal units (Hartrees-Bohrs-Radians)
 Mixed Optimization -- En-DIIS/RFO-DIIS
 Swapping is turned off.
 Update second derivatives using D2CorX and points    2    3
 DE= -2.47D-04 DEPred=-2.29D-04 R= 1.08D+00
 TightC=F SS=  1.41D+00  RLast= 2.85D-01 DXNew= 8.4853D-01 8.5520D-01
 Trust test= 1.08D+00 RLast= 2.85D-01 DXMaxT set to 8.49D-01
 ITU=  1  1  0
     Eigenvalues ---    0.00346   0.01375   0.01451   0.01473   0.01474
     Eigenvalues ---    0.05249   0.05533   0.06094   0.06110   0.10056
     Eigenvalues ---    0.10064   0.10527   0.10533   0.11214   0.12134
     Eigenvalues ---    0.13752   0.14640   0.15995   0.16000   0.16000
     Eigenvalues ---    0.16000   0.16001   0.16226   0.22033   0.22806
     Eigenvalues ---    0.25000   0.25078   0.33318   0.33486   0.33487
     Eigenvalues ---    0.33487   0.33524   0.33525   0.33525   0.33528
     Eigenvalues ---    0.34533   0.34534   0.34553   0.42734   0.42772
     Eigenvalues ---    0.42992   0.43220
 En-DIIS/RFO-DIIS IScMMF=        0 using points:     3    2
 RFO step:  Lambda=-1.56524972D-05.
 DidBck=F Rises=F RFO-DIIS coefs:    1.05866   -0.05866
 Iteration  1 RMS(Cart)=  0.01982880 RMS(Int)=  0.00023858
 Iteration  2 RMS(Cart)=  0.00032501 RMS(Int)=  0.00000234
 Iteration  3 RMS(Cart)=  0.00000006 RMS(Int)=  0.00000234
 Variable       Old X    -DE/DX   Delta X   Delta X   Delta X     New X
                                 (Linear)    (Quad)   (Total)
    R1        2.08168  -0.00003  -0.00001  -0.00011  -0.00012   2.08156
    R2        2.08347  -0.00008   0.00002  -0.00024  -0.00022   2.08325
    R3        2.06436   0.00001   0.00000   0.00002   0.00002   2.06438
    R4        2.67411   0.00024  -0.00010   0.00047   0.00037   2.67448
    R5        2.08797  -0.00027   0.00011  -0.00072  -0.00061   2.08736
    R6        2.08303  -0.00002  -0.00000  -0.00006  -0.00007   2.08297
    R7        2.85783   0.00130  -0.00081   0.00347   0.00266   2.86049
    R8        2.67616   0.00031  -0.00002   0.00074   0.00072   2.67688
    R9        2.08303  -0.00002  -0.00000  -0.00006  -0.00007   2.08297
   R10        2.08797  -0.00027   0.00011  -0.00072  -0.00061   2.08736
   R11        2.67616   0.00031  -0.00002   0.00074   0.00072   2.67688
   R12        2.08168  -0.00003  -0.00001  -0.00011  -0.00012   2.08156
   R13        2.06436   0.00001   0.00000   0.00002   0.00002   2.06438
   R14        2.08347  -0.00008   0.00002  -0.00024  -0.00022   2.08325
   R15        2.67411   0.00024  -0.00010   0.00047   0.00037   2.67448
    A1        1.89498  -0.00003  -0.00001  -0.00021  -0.00022   1.89476
    A2        1.90220  -0.00000   0.00002  -0.00001   0.00001   1.90222
    A3        1.94657  -0.00007   0.00007  -0.00039  -0.00031   1.94626
    A4        1.90260  -0.00006   0.00001  -0.00032  -0.00031   1.90230
    A5        1.94706   0.00011  -0.00018   0.00050   0.00032   1.94738
    A6        1.86954   0.00004   0.00009   0.00042   0.00050   1.87005
    A7        1.88823  -0.00027   0.00019  -0.00106  -0.00088   1.88735
    A8        1.89449   0.00096  -0.00032   0.00771   0.00739   1.90188
    A9        1.92627  -0.00031   0.00069  -0.00185  -0.00116   1.92511
   A10        1.90681   0.00002  -0.00042  -0.00082  -0.00125   1.90556
   A11        1.93368   0.00015  -0.00019  -0.00121  -0.00141   1.93228
   A12        1.91370  -0.00051   0.00004  -0.00254  -0.00250   1.91120
   A13        1.90681   0.00002  -0.00042  -0.00082  -0.00125   1.90556
   A14        1.89449   0.00096  -0.00032   0.00771   0.00739   1.90188
   A15        1.91370  -0.00051   0.00004  -0.00254  -0.00250   1.91120
   A16        1.88823  -0.00027   0.00019  -0.00106  -0.00088   1.88735
   A17        1.93369   0.00015  -0.00019  -0.00121  -0.00141   1.93228
   A18        1.92627  -0.00031   0.00069  -0.00185  -0.00116   1.92511
   A19        1.90220  -0.00000   0.00002  -0.00001   0.00001   1.90222
   A20        1.89498  -0.00003  -0.00001  -0.00021  -0.00022   1.89476
   A21        1.94657  -0.00007   0.00007  -0.00039  -0.00031   1.94626
   A22        1.90260  -0.00006   0.00001  -0.00032  -0.00031   1.90230
   A23        1.86954   0.00004   0.00009   0.00042   0.00050   1.87005
   A24        1.94706   0.00011  -0.00018   0.00050   0.00032   1.94738
   A25        1.97054   0.00043  -0.00004   0.00176   0.00172   1.97226
   A26        1.97054   0.00043  -0.00004   0.00176   0.00172   1.97226
    D1        1.06519   0.00003   0.00012   0.00204   0.00216   1.06735
    D2       -1.05721   0.00003   0.00022   0.00222   0.00243  -1.05478
    D3       -3.13799   0.00001   0.00025   0.00206   0.00231  -3.13568
    D4        1.27089   0.00006   0.00579   0.01902   0.02481   1.29570
    D5       -0.78456  -0.00017   0.00599   0.01634   0.02233  -0.76223
    D6       -2.89004  -0.00007   0.00532   0.01540   0.02072  -2.86932
    D7       -2.95685   0.00029   0.00560   0.02169   0.02728  -2.92956
    D8        1.27089   0.00006   0.00579   0.01902   0.02481   1.29570
    D9       -0.83459   0.00016   0.00512   0.01807   0.02320  -0.81140
   D10       -0.83459   0.00016   0.00512   0.01807   0.02320  -0.81140
   D11       -2.89004  -0.00007   0.00532   0.01540   0.02072  -2.86932
   D12        1.28767   0.00003   0.00465   0.01445   0.01911   1.30677
   D13        1.08628  -0.00016   0.00154   0.01364   0.01518   1.10146
   D14       -1.00476   0.00028   0.00098   0.01695   0.01793  -0.98684
   D15       -3.11081   0.00050   0.00160   0.02041   0.02200  -3.08880
   D16       -3.11077   0.00050   0.00160   0.02039   0.02199  -3.08878
   D17       -1.00473   0.00028   0.00098   0.01693   0.01791  -0.98682
   D18        1.08632  -0.00016   0.00154   0.01362   0.01516   1.10148
   D19        1.06518   0.00003   0.00012   0.00204   0.00217   1.06734
   D20       -3.13800   0.00001   0.00025   0.00207   0.00232  -3.13568
   D21       -1.05723   0.00003   0.00022   0.00223   0.00244  -1.05478
         Item               Value     Threshold  Converged?
 Maximum Force            0.001301     0.000450     NO 
 RMS     Force            0.000317     0.000300     NO 
 Maximum Displacement     0.063778     0.001800     NO 
 RMS     Displacement     0.019947     0.001200     NO 
 Predicted change in Energy=-3.172666D-05
 GradGradGradGradGradGradGradGradGradGradGradGradGradGradGradGradGradGrad

                          Input orientation:                          
 ---------------------------------------------------------------------
 Center     Atomic      Atomic             Coordinates (Angstroms)
 Number     Number       Type             X           Y           Z
 ---------------------------------------------------------------------
      1          6           0       -1.884006    1.978397   -1.303711
      2          1           0       -1.844084    2.759192   -0.527760
      3          1           0       -2.813992    1.401023   -1.173054
      4          1           0       -1.896292    2.454566   -2.286821
      5          6           0       -0.609072    0.453385   -0.028848
      6          1           0       -1.463783   -0.229896    0.121825
      7          1           0       -0.583539    1.162199    0.814898
      8          6           0        0.670976   -0.354506   -0.038585
      9          1           0        0.746680   -0.901588   -0.992496
     10          1           0        0.634593   -1.094789    0.780417
     11          6           0        3.022122   -0.160216    0.065139
     12          1           0        3.169213   -0.642222   -0.914334
     13          1           0        3.802188    0.590182    0.212759
     14          1           0        3.109881   -0.928364    0.850984
     15          8           0       -0.742271    1.143276   -1.258849
     16          8           0        1.778522    0.512170    0.131146
 ---------------------------------------------------------------------
                    Distance matrix (angstroms):
                    1          2          3          4          5
     1  C    0.000000
     2  H    1.101514   0.000000
     3  H    1.102409   1.789343   0.000000
     4  H    1.092425   1.786006   1.786785   0.000000
     5  C    2.361439   2.662877   2.658739   3.280259   0.000000
     6  H    2.661823   3.082408   2.481869   3.632489   1.104584
     7  H    2.616467   2.437641   2.997317   3.607518   1.102260
     8  C    3.683872   4.032361   4.063730   4.419990   1.513706
     9  H    3.913014   4.508808   4.244172   4.463669   2.145375
    10  H    4.486803   4.765326   4.683787   5.330219   2.144401
    11  C    5.524266   5.705650   6.166913   6.046453   3.683872
    12  H    5.705636   6.070602   6.327758   6.093697   4.032354
    13  H    6.046456   6.093715   6.808214   6.495883   4.419989
    14  H    6.166919   6.327779   6.679450   6.808216   4.063736
    15  O    1.415274   2.087982   2.089455   2.026813   1.416543
    16  O    4.197946   4.313530   4.856149   4.808713   2.393671
                    6          7          8          9         10
     6  H    0.000000
     7  H    1.786927   0.000000
     8  C    2.144401   2.145375   0.000000
     9  H    2.564961   3.048831   1.102260   0.000000
    10  H    2.363253   2.564962   1.104584   1.786927   0.000000
    11  C    4.486804   3.913018   2.361439   2.616460   2.661831
    12  H    4.765322   4.508805   2.662876   2.437632   3.082418
    13  H    5.330220   4.463673   3.280259   3.607513   3.632495
    14  H    4.683795   4.244185   2.658742   2.997309   2.481880
    15  O    2.076642   2.079899   2.393671   2.543499   3.326153
    16  O    3.326152   2.543499   1.416543   2.079899   2.076642
                   11         12         13         14         15
    11  C    0.000000
    12  H    1.101514   0.000000
    13  H    1.092425   1.786006   0.000000
    14  H    1.102409   1.789343   1.786785   0.000000
    15  O    4.197939   4.313513   4.808706   4.856147   0.000000
    16  O    1.415274   2.087982   2.026813   2.089455   2.946995
                   16
    16  O    0.000000
 Stoichiometry    C4H10O2
 Framework group  C1[X(C4H10O2)]
 Deg. of freedom    42
 Full point group                 C1      NOp   1
 Largest Abelian subgroup         C1      NOp   1
 Largest concise Abelian subgroup C1      NOp   1
                         Standard orientation:                         
 ---------------------------------------------------------------------
 Center     Atomic      Atomic             Coordinates (Angstroms)
 Number     Number       Type             X           Y           Z
 ---------------------------------------------------------------------
      1          6           0       -2.761317   -0.439698   -0.067154
      2          1           0       -2.809581   -0.643201   -1.148630
      3          1           0       -3.336639    0.476782    0.143498
      4          1           0       -3.213420   -1.275166    0.472280
      5          6           0       -0.717972    0.731389   -0.239461
      6          1           0       -1.181527    1.701032    0.015521
      7          1           0       -0.733972    0.621234   -1.336086
      8          6           0        0.717972    0.731389    0.239465
      9          1           0        0.733971    0.621219    1.336088
     10          1           0        1.181522    1.701037   -0.015504
     11          6           0        2.761315   -0.439702    0.067158
     12          1           0        2.809564   -0.643225    1.148631
     13          1           0        3.213421   -1.275161   -0.472287
     14          1           0        3.336644    0.476780   -0.143470
     15          8           0       -1.423416   -0.328855    0.380881
     16          8           0        1.423420   -0.328844   -0.380891
 ---------------------------------------------------------------------
 Rotational constants (GHZ):     11.2562747      1.5035531      1.4220269
 Standard basis: 6-31++G(d,p) (6D, 7F)
 There are   174 symmetry adapted cartesian basis functions of A   symmetry.
 There are   174 symmetry adapted basis functions of A   symmetry.
   174 basis functions,   272 primitive gaussians,   174 cartesian basis functions
    25 alpha electrons       25 beta electrons
       nuclear repulsion energy       255.3874222977 Hartrees.
 NAtoms=   16 NActive=   16 NUniq=   16 SFac= 1.00D+00 NAtFMM=   60 NAOKFM=F Big=F
 Integral buffers will be    131072 words long.
 Raffenetti 2 integral format.
 Two-electron integral symmetry is turned on.
 Nuclear repulsion after empirical dispersion term =      255.3782869234 Hartrees.
 One-electron integrals computed using PRISM.
 PrsmSu:  requested number of processors reduced to:   9 ShMem   1 Linda.
 NBasis=   174 RedAO= T EigKep=  4.24D-05  NBF=   174
 NBsUse=   174 1.00D-06 EigRej= -1.00D+00 NBFU=   174
 Initial guess from the checkpoint file:  "2oxygen_gauche.chk"
 B after Tr=     0.000000   -0.000000   -0.000000
         Rot=    1.000000    0.000002    0.000275    0.000000 Ang=   0.03 deg.
 ExpMin= 3.60D-02 ExpMax= 5.48D+03 ExpMxC= 8.25D+02 IAcc=3 IRadAn=         5 AccDes= 0.00D+00
 Harris functional with IExCor=  402 and IRadAn=       5 diagonalized for initial guess.
 HarFok:  IExCor=  402 AccDes= 0.00D+00 IRadAn=         5 IDoV= 1 UseB2=F ITyADJ=14
 ICtDFT=  3500011 ScaDFX=  1.000000  1.000000  1.000000  1.000000
 FoFCou: FMM=F IPFlag=           0 FMFlag=      100000 FMFlg1=           0
         NFxFlg=           0 DoJE=T BraDBF=F KetDBF=T FulRan=T
         wScrn=  0.000000 ICntrl=     500 IOpCl=  0 I1Cent=   200000004 NGrid=           0
         NMat0=    1 NMatS0=      1 NMatT0=    0 NMatD0=    1 NMtDS0=    0 NMtDT0=    0
 Petite list used in FoFCou.
 Requested convergence on RMS density matrix=1.00D-08 within 128 cycles.
 Requested convergence on MAX density matrix=1.00D-06.
 Requested convergence on             energy=1.00D-06.
 No special actions if energy rises.
 SCF Done:  E(RB3LYP) =  -308.892581972     A.U. after    8 cycles
            NFock=  8  Conv=0.99D-08     -V/T= 2.0095
 PrsmSu:  requested number of processors reduced to:   9 ShMem   1 Linda.
 Calling FoFJK, ICntrl=      2127 FMM=F ISym2X=0 I1Cent= 0 IOpClX= 0 NMat=1 NMatS=1 NMatT=0.
 ***** Axes restored to original set *****
 -------------------------------------------------------------------
 Center     Atomic                   Forces (Hartrees/Bohr)
 Number     Number              X              Y              Z
 -------------------------------------------------------------------
      1        6           0.000008175    0.000099100    0.000113583
      2        1           0.000035006   -0.000011305    0.000002271
      3        1          -0.000014064    0.000031421   -0.000013999
      4        1           0.000027969   -0.000050383   -0.000011155
      5        6          -0.000338506    0.000123808    0.000482769
      6        1           0.000019022    0.000259984   -0.000140477
      7        1          -0.000066728   -0.000081306    0.000064020
      8        6           0.000057253   -0.000573125   -0.000176590
      9        1          -0.000045725   -0.000098309    0.000058306
     10        1           0.000228969    0.000136133   -0.000129390
     11        6           0.000009930   -0.000070157   -0.000133164
     12        1          -0.000028887    0.000021063   -0.000008937
     13        1          -0.000045025    0.000023135    0.000029723
     14        1           0.000035748    0.000003210   -0.000009614
     15        8          -0.000009019   -0.000142768   -0.000472185
     16        8           0.000125884    0.000329500    0.000344838
 -------------------------------------------------------------------
 Cartesian Forces:  Max     0.000573125 RMS     0.000175374

 GradGradGradGradGradGradGradGradGradGradGradGradGradGradGradGradGradGrad
 Berny optimization.
 Using GEDIIS/GDIIS optimizer.
 FormGI is forming the generalized inverse of G from B-inverse, IUseBI=4.
 Internal  Forces:  Max     0.000429505 RMS     0.000152484
 Search for a local minimum.
 Step number   4 out of a maximum of   72
 All quantities printed in internal units (Hartrees-Bohrs-Radians)
 Mixed Optimization -- En-DIIS/RFO-DIIS
 Swapping is turned off.
 Update second derivatives using D2CorX and points    2    3    4
 DE= -4.47D-05 DEPred=-3.17D-05 R= 1.41D+00
 TightC=F SS=  1.41D+00  RLast= 8.38D-02 DXNew= 1.4270D+00 2.5146D-01
 Trust test= 1.41D+00 RLast= 8.38D-02 DXMaxT set to 8.49D-01
 ITU=  1  1  1  0
     Eigenvalues ---    0.00300   0.01096   0.01451   0.01473   0.01474
     Eigenvalues ---    0.05259   0.05814   0.06049   0.06071   0.10056
     Eigenvalues ---    0.10098   0.10524   0.10531   0.11218   0.12154
     Eigenvalues ---    0.13363   0.13744   0.15996   0.16000   0.16000
     Eigenvalues ---    0.16000   0.16076   0.16131   0.21522   0.22026
     Eigenvalues ---    0.25000   0.25509   0.33386   0.33459   0.33487
     Eigenvalues ---    0.33487   0.33524   0.33525   0.33525   0.33545
     Eigenvalues ---    0.34061   0.34534   0.34537   0.42551   0.42734
     Eigenvalues ---    0.42992   0.43383
 En-DIIS/RFO-DIIS IScMMF=        0 using points:     4    3    2
 RFO step:  Lambda=-4.71366246D-06.
 DidBck=F Rises=F RFO-DIIS coefs:    1.70025   -0.70753    0.00728
 Iteration  1 RMS(Cart)=  0.02030028 RMS(Int)=  0.00022398
 Iteration  2 RMS(Cart)=  0.00032940 RMS(Int)=  0.00000277
 Iteration  3 RMS(Cart)=  0.00000006 RMS(Int)=  0.00000277
[...]
 ! A20   A(12,11,14)           108.5805         -DE/DX =    0.0                 !
 ! A21   A(12,11,16)           111.483          -DE/DX =    0.0                 !
 ! A22   A(13,11,14)           108.9683         -DE/DX =    0.0                 !
 ! A23   A(13,11,16)           107.1131         -DE/DX =    0.0                 !
 ! A24   A(14,11,16)           111.6188         -DE/DX =    0.0                 !
 ! A25   A(1,15,5)             113.015          -DE/DX =    0.0                 !
 ! A26   A(8,16,11)            113.015          -DE/DX =    0.0                 !
 ! D1    D(2,1,15,5)            61.3754         -DE/DX =    0.0                 !
 ! D2    D(3,1,15,5)           -60.2464         -DE/DX =    0.0                 !
 ! D3    D(4,1,15,5)          -179.4462         -DE/DX =    0.0                 !
 ! D4    D(6,5,8,9)             74.7155         -DE/DX =    0.0                 !
 ! D5    D(6,5,8,10)           -43.343          -DE/DX =    0.0                 !
 ! D6    D(6,5,8,16)          -163.9923         -DE/DX =    0.0                 !
 ! D7    D(7,5,8,9)           -167.2259         -DE/DX =    0.0                 !
 ! D8    D(7,5,8,10)            74.7155         -DE/DX =    0.0                 !
 ! D9    D(7,5,8,16)           -45.9338         -DE/DX =    0.0                 !
 ! D10   D(15,5,8,9)           -45.9338         -DE/DX =    0.0                 !
 ! D11   D(15,5,8,10)         -163.9923         -DE/DX =    0.0                 !
 ! D12   D(15,5,8,16)           75.3584         -DE/DX =    0.0                 !
 ! D13   D(6,5,15,1)            64.759          -DE/DX =    0.0                 !
 ! D14   D(7,5,15,1)           -54.8871         -DE/DX =    0.0                 !
 ! D15   D(8,5,15,1)          -175.1876         -DE/DX =    0.0                 !
 ! D16   D(5,8,16,11)         -175.1877         -DE/DX =    0.0                 !
 ! D17   D(9,8,16,11)          -54.8871         -DE/DX =    0.0                 !
 ! D18   D(10,8,16,11)          64.7589         -DE/DX =    0.0                 !
 ! D19   D(12,11,16,8)          61.3755         -DE/DX =    0.0                 !
 ! D20   D(13,11,16,8)        -179.4462         -DE/DX =    0.0                 !
 ! D21   D(14,11,16,8)         -60.2464         -DE/DX =    0.0                 !
 --------------------------------------------------------------------------------
 GradGradGradGradGradGradGradGradGradGradGradGradGradGradGradGradGradGrad

 1\1\GINC-HPC-M36-4-1\Freq\RB3LYP\6-31++G(d,p)\C4H10O2\LRK19E\05-Jul-20
 20\0\\#N Geom=AllCheck Guess=TCheck SCRF=Check GenChk RB3LYP/6-31++G(d
 ,p) Freq\\Title Card Required\\0,1\C,-1.8676189207,1.9804008549,-1.306
 8281008\H,-1.7987610041,2.7709549053,-0.5429897038\H,-2.810646104,1.42
 92231838,-1.1578778254\H,-1.8787187871,2.4420521318,-2.2968614136\C,-0
 .6190853516,0.4381997598,-0.0246930262\H,-1.474703989,-0.2430544555,0.
 1263806502\H,-0.597627774,1.1534741994,0.8134763878\C,0.6646083975,-0.
 3654923595,-0.0249218044\H,0.7495855513,-0.9107314294,-0.9789129838\H,
 0.629939501,-1.1065218229,0.7928111709\C,3.0154380907,-0.1467145111,0.
 0577009272\H,3.1579699317,-0.5995630369,-0.9361698433\H,3.7882056595,0
 .6084403881,0.2188915941\H,3.1199917884,-0.9350433616,0.8211728828\O,-
 0.746640693,1.1174906532,-1.26221619\O,1.7651979435,0.5096927906,0.153
 7501783\\Version=ES64L-G09RevE.01\State=1-A\HF=-308.8925995\RMSD=1.692
 e-09\RMSF=1.451e-05\ZeroPoint=0.1411238\Thermal=0.1533605\Dipole=-0.26
 25337,-0.4194122,0.2856884\DipoleDeriv=0.7569417,-0.272475,0.1177969,-
 0.244254,0.6086773,-0.0319744,0.0122779,0.0459857,0.2959982,-0.0113122
 ,0.002824,-0.0672663,0.0461903,-0.1150119,-0.0737345,0.0263079,-0.1753
 243,-0.0658567,-0.2055305,-0.0126078,-0.0191046,-0.1343082,-0.0648309,
 0.0280575,0.0585392,0.0049435,0.0495147,0.0339867,0.0257653,0.0076549,
 0.0496514,0.0093691,0.0757229,-0.0430547,0.1089903,-0.0997033,0.328099
 6,0.023581,0.0721161,-0.0126758,0.5601458,-0.2021483,0.2254315,-0.3028
 406,0.707687,-0.1492582,-0.122524,0.0490528,-0.0777551,-0.0946316,0.06
 8859,-0.0560687,0.0543736,-0.0178085,0.0367674,-0.0075094,-0.0016129,0
 .0383622,-0.0889046,-0.1186139,-0.0380983,-0.0219146,-0.1288744,0.7451
 247,0.2050024,0.0206791,0.3819457,0.4160816,0.0112313,0.0739022,-0.017
 3607,0.434726,-0.0344034,0.0259805,0.0332065,-0.0681714,-0.0239554,-0.
 0707856,-0.0011872,-0.1231176,-0.122653,-0.05865,0.0194623,-0.0272665,
 -0.073433,-0.0921443,0.0997491,0.0072016,0.1584604,-0.1109039,0.823718
 8,-0.2018346,-0.009405,-0.3292277,0.4153518,-0.02663,-0.0494783,-0.013
 4556,0.4225466,-0.022793,0.0031497,-0.0224445,0.0968412,-0.0042734,-0.
 0772059,0.0851927,-0.1015657,-0.1651145,-0.1014923,-0.0497456,-0.01864
 11,-0.1141998,-0.0272581,-0.023508,-0.0274888,-0.0194951,0.0724028,-0.
 0301518,-0.0074673,0.0242501,0.1209973,-0.096352,0.1243841,-0.0434634,
 0.1412821,-0.0943428,-0.8052906,0.3126357,-0.1365871,0.3651513,-0.8068
 769,0.2289045,-0.197452,0.2940623,-0.733297,-1.3057569,0.0557625,-0.02
 24283,-0.0451143,-0.5953864,-0.0123077,-0.0325615,-0.0330237,-0.444321
 2\Polar=68.9284413,-5.0971293,58.7310461,2.9048738,-3.0594234,55.80239
 83\PG=C01 [X(C4H10O2)]\NImag=0\\0.48895732,0.04477178,0.52692639,-0.00
 255047,-0.02264610,0.60624716,-0.05309462,-0.02245711,-0.02186331,0.05
 885255,-0.02066618,-0.16767384,-0.11673478,0.01044350,0.18877106,-0.01
 911664,-0.11859767,-0.17381625,0.01724577,0.13453734,0.18076437,-0.210
 07031,-0.10804342,0.02578988,-0.00089651,-0.00413491,0.00058334,0.2462
 6775,-0.11066802,-0.12438879,0.01910307,-0.01882625,-0.01092003,0.0040
 1329,0.11183982,0.12713799,0.02679643,0.01814542,-0.05803809,-0.019057
 90,-0.01314787,0.00375200,-0.03050031,-0.01906460,0.05233090,-0.048081
 02,-0.00732374,0.01165734,0.00093226,0.00062389,-0.00415861,0.00179334
 ,-0.01010542,0.02436482,0.05519338,-0.00304350,-0.09183551,0.09476683,
 0.00006126,0.01140784,-0.02065206,-0.00109976,-0.00588447,0.01576291,-
 0.00595413,0.10227815,0.00234006,0.10160477,-0.27665915,0.00151441,0.0
 0894034,-0.01803937,0.00029027,0.00004275,-0.00179568,-0.00105076,-0.1
 1181513,0.29252370,-0.01164307,0.02002547,-0.03235272,0.00108769,-0.00
 093392,-0.00000054,0.00088634,0.00260104,-0.00238637,-0.00397412,0.003
 50298,-0.00068361,0.55243902,0.00832719,-0.02286859,0.02568678,-0.0007
 4118,0.00151843,0.00315926,-0.00356353,0.00376350,-0.00177159,0.002377
 06,-0.00136759,-0.00057961,0.02266579,0.54836100,-0.00851948,0.0077195
 6,-0.00888425,0.00503224,-0.00572299,0.00256287,0.00517125,-0.00253254
 ,0.00093057,0.00139282,-0.00207558,0.00210189,-0.00964874,0.05042073,0
 .50124350,0.00304998,0.00210836,-0.00061686,-0.00030324,-0.00030503,-0
 .00016697,0.00043050,-0.00171929,0.00063343,0.00024082,-0.00011683,0.0
 0011129,-0.19832286,-0.10922396,0.01627743,0.21206218,-0.00463781,0.00
 187295,-0.00001399,0.00005857,-0.00039566,-0.00036326,0.00162915,-0.00
 014330,-0.00009542,0.00056871,0.00018247,-0.00001334,-0.11153513,-0.13
 806181,0.00798619,0.12394963,0.15203558,0.00505052,-0.00201595,0.00050
 246,-0.00076398,0.00032877,-0.00017978,-0.00160221,-0.00056591,0.00048
 855,-0.00023286,-0.00017059,-0.00000433,0.01474467,0.00849645,-0.04995
 190,-0.02114589,-0.02430723,0.06268639,0.00100621,-0.00199055,-0.00179
 850,0.00020164,0.00029815,0.00037419,-0.00015855,-0.00020963,-0.000017
 02,-0.00007319,0.00008766,0.00019552,-0.05162055,-0.00583251,-0.005352
 25,0.00024683,-0.01853416,-0.01766857,0.05091860,-0.00109345,0.0040315
 5,0.00274356,-0.00084868,-0.00006715,-0.00145036,-0.00002787,-0.000750
 55,-0.00019563,-0.00020514,0.00018196,-0.00003703,-0.00305493,-0.16480
 828,-0.12205999,0.00006625,-0.01217538,-0.01364807,0.00178468,0.173200
 56,0.00442700,-0.00403587,0.00056405,-0.00110478,0.00185019,0.00066630
 ,-0.00070256,0.00020203,-0.00002996,-0.00003714,0.00048027,0.00040840,
 -0.00339507,-0.11806285,-0.17473982,-0.00019040,0.00041802,0.00454882,
 0.00556880,0.12753290,0.20777243,-0.00042756,0.00037467,0.00101342,-0.
 00001700,0.00001078,-0.00042488,0.00017485,-0.00003402,-0.00009184,0.0
 0056082,-0.00039393,0.00059123,-0.16374176,0.07134453,0.00302883,-0.01
 731969,0.01221070,0.00226034,-0.00089482,-0.00125890,0.00035880,0.4857
 2421,-0.00037895,-0.00186198,0.00304364,0.00022416,0.00008461,0.000157
 23,0.00033020,0.00007601,0.00002743,0.00106858,-0.00022071,0.00011681,
 0.05351107,-0.11693997,-0.00579543,-0.02071533,0.01101047,-0.00025224,
 0.02094350,-0.01251669,-0.00180556,-0.03605615,0.53100638,0.00028494,0
 .00216241,-0.00592985,0.00011566,0.00045586,0.00030855,-0.00011535,-0.
 00024821,0.00000204,-0.00152350,0.00144147,0.00006094,0.01157793,-0.01
 154404,-0.07797378,0.00015751,-0.00124605,-0.00026346,0.02199895,-0.01
 494935,0.00131073,-0.01197726,-0.00537887,0.58531293,0.00002746,0.0000
 7289,0.00006686,0.00005588,-0.00028253,-0.00013260,0.00008994,-0.00002
 588,0.00006642,0.00005678,-0.00006194,-0.00010466,-0.00226066,0.015308
 03,0.02639760,0.00041279,-0.00070709,-0.00003328,-0.00450671,0.0030991
 4,-0.00094554,-0.05355084,0.01485149,0.02531987,0.06218558,0.00017776,
 -0.00015683,0.00015296,-0.00015104,0.00027963,0.00012114,-0.00017658,0
 .00002680,-0.00002421,-0.00005090,0.00004899,0.00004539,0.00448300,-0.
 00886080,-0.01654503,0.00042649,-0.00003728,0.00041958,0.00256049,-0.0
 0101280,-0.00012456,0.01306282,-0.10108901,-0.09395454,-0.00702217,0.1
 1630631,-0.00024591,0.00033564,0.00036606,-0.00015376,0.00009395,-0.00
 015768,0.00003254,0.00001896,-0.00002576,0.00008800,-0.00009636,0.0000
 0167,-0.00044909,0.00066183,-0.00097933,0.00076675,-0.00027927,-0.0000
 2422,0.00000475,0.00080743,0.00059495,0.02481449,-0.09886044,-0.236528
 79,-0.02152619,0.11341783,0.25339969,0.00069415,0.00029864,-0.00146817
 ,-0.00008680,0.00016531,0.00010128,-0.00019124,-0.00002120,0.00001683,
 -0.00051881,0.00038754,-0.00009227,0.00359494,0.01371725,-0.02182364,0
 .00004345,-0.00022319,-0.00087746,0.00037628,-0.00005311,0.00097272,-0
 .05040748,0.00542779,0.00048295,0.00205972,-0.00196095,0.00438287,0.06
 043228,-0.00040769,0.00010445,0.00097337,-0.00006110,-0.00001803,-0.00
 004302,0.00012079,-0.00000257,0.00001572,0.00026559,-0.00022486,0.0000
 4934,-0.00165763,-0.00951494,0.01508836,0.00032087,0.00110731,-0.00020
 564,-0.00039478,-0.00021136,-0.00035355,0.00522364,-0.14587783,0.11284
 110,0.00097156,0.01112070,-0.01035035,0.00780043,0.16791328,0.00061200
 ,-0.00020176,0.00036924,-0.00013971,0.00012779,0.00003396,-0.00013554,
 0.00001270,0.00000565,0.00001901,-0.00000467,-0.00002433,0.00183997,-0
 .00203412,-0.00065267,-0.00105189,0.00010774,0.00021288,-0.00039304,0.
 00030328,0.00018636,-0.00167697,0.11464230,-0.19005126,-0.00114066,0.0
 1811380,-0.02056014,-0.00101935,-0.12936227,0.19843858,-0.00126702,0.0
 0096698,-0.00019913,0.00008888,-0.00012827,-0.00012185,0.00038142,-0.0
 0001786,-0.00006371,0.00010498,-0.00011294,0.00016913,-0.00350955,-0.0
 0311652,-0.00023697,-0.00006679,0.00079352,0.00021506,-0.00028159,-0.0
 0016694,0.00010333,-0.04842485,0.01075713,0.00028593,0.00458994,0.0034
 8834,0.00173915,0.00476852,0.00357864,-0.00061908,0.50878883,0.0006763
 7,-0.00041739,-0.00008469,-0.00006900,0.00007662,0.00006558,-0.0000939
 0,-0.00004143,0.00007538,-0.00007018,0.00014333,-0.00010376,-0.0033634
 7,-0.00434146,0.00003857,-0.00162664,0.00088975,-0.00006366,0.00019904
 ,0.00028275,0.00021904,-0.02084341,0.00959692,0.00231668,-0.00374841,-
 0.00060340,-0.00018682,-0.00487450,-0.00054234,-0.00048715,0.07165120,
 0.56219543,0.00001608,-0.00005712,-0.00004295,0.00001171,0.00000245,-0
 .00000843,-0.00000742,0.00005014,-0.00000810,-0.00003534,0.00004495,-0
 .00003370,-0.00022160,-0.00130826,-0.00036837,-0.00022079,0.00033613,0
 .00034487,0.00017388,0.00016177,0.00023552,-0.00509888,0.00263871,-0.0
 0456797,-0.00397647,0.00050839,0.00161527,0.00254235,-0.00092049,0.001
 19922,0.01197660,0.00578791,0.55114660,0.00008931,-0.00004956,-0.00000
 683,0.00000432,-0.00000630,0.00000498,-0.00001355,-0.00000798,0.000008
 07,-0.00000977,0.00001312,-0.00001146,-0.00026572,0.00005938,-0.000040
 82,-0.00010710,-0.00003008,-0.00016005,0.00013889,-0.00025706,-0.00019
 958,0.00437852,0.00498413,0.00455008,0.00007410,-0.00113256,-0.0015658
 5,-0.00045963,-0.00052673,-0.00029583,-0.05185081,0.00357210,0.0149032
 5,0.06132492,-0.00014698,0.00007669,-0.00000607,0.00000769,-0.00000187
 ,-0.00000973,0.00001988,0.00000527,-0.00000623,0.00002926,-0.00002652,
 0.00002977,-0.00009352,0.00028952,-0.00011301,0.00011212,-0.00000165,0
 .00011789,-0.00018828,0.00004897,0.00006250,-0.00269548,-0.00054809,0.
 00114462,0.00089638,0.00076055,0.00024088,0.00041131,0.00021280,0.0000
 2529,0.00554901,-0.08738524,-0.08436327,-0.01724297,0.09400015,-0.0001
 0332,0.00007479,-0.00000893,0.00000157,0.00000005,-0.00000223,0.000033
 16,-0.00000051,-0.00000682,0.00001356,-0.00002342,0.00001795,-0.000038
 00,0.00052220,0.00035236,0.00014011,-0.00005003,0.00003788,-0.00031280
 ,0.00009294,-0.00001002,-0.00197436,-0.00050331,0.00133855,0.00161747,
 0.00062304,-0.00003386,-0.00004951,0.00018944,-0.00063185,0.01768805,-
 0.08596285,-0.25534865,-0.02650860,0.09906381,0.27306289,0.00021826,-0
 .00017899,-0.00007026,-0.00002946,0.00003297,0.00004244,-0.00001816,0.
 00000386,0.00002507,-0.00003804,0.00004678,-0.00004296,-0.00089385,-0.
 00198423,0.00008549,-0.00056847,0.00038386,-0.00003523,0.00009695,0.00
 007096,0.00003994,-0.00278534,0.00552475,0.00078987,0.00009504,-0.0000
 8795,-0.00027381,0.00001113,-0.00021275,0.00025926,-0.16937132,-0.1267
 9225,-0.02683588,0.00435506,0.00182427,-0.00020082,0.20013646,0.000060
 83,-0.00004202,-0.00000299,-0.00000177,0.00000589,0.00000468,-0.000026
 12,-0.00000019,-0.00000006,-0.00000768,0.00000378,-0.00000549,0.000908
 07,0.00069487,0.00006622,0.00021638,-0.00018260,0.00000859,-0.00013009
 ,0.00003228,-0.00002915,0.00275014,-0.00057565,-0.00015294,0.00017417,
 0.00007800,0.00030052,0.00031038,0.00020274,-0.00024859,-0.13891403,-0
 .19019872,-0.02973187,-0.00732790,-0.00721469,-0.00033808,0.13932627,0
 .19654386,0.00001455,-0.00003535,0.00003837,-0.00000723,-0.00000175,0.
 00000524,-0.00000231,0.00000718,-0.00000087,-0.00000333,-0.00000144,-0
 .00000798,0.00006980,0.00007698,0.00060003,0.00000921,-0.00000358,-0.0
 0001693,-0.00007875,0.00002400,-0.00002179,0.00044589,-0.00013383,0.00
 012119,0.00030818,0.00030789,0.00034413,-0.00032332,-0.00025659,0.0002
 0509,-0.02903058,-0.02936382,-0.05700563,-0.02013588,-0.02100306,-0.00
 283965,0.02999696,0.03166840,0.05331490,0.00009251,-0.00016839,0.00007
 855,0.00000483,0.00001077,0.00001249,-0.00005549,0.00002028,-0.0000025
 7,0.00000618,-0.00000260,-0.00001501,-0.00000862,0.00000771,0.00020009
 ,-0.00014295,-0.00000832,-0.00002498,0.00014358,-0.00006151,-0.0000533
 2,0.00465364,0.00575967,-0.00248585,-0.00050125,-0.00046755,0.00003522
 ,0.00016458,-0.00145824,0.00135100,-0.05132394,0.00278552,-0.00623471,
 0.00239937,-0.00270215,0.00046970,0.00355440,-0.01417594,0.01617481,0.
 05955477,-0.00025933,0.00019117,-0.00005202,0.00000891,-0.00002922,-0.
 00001996,0.00007003,0.00000103,-0.00001261,0.00000583,-0.00002157,0.00
 002705,0.00008041,0.00021185,-0.00018774,0.00017314,-0.00002161,0.0000
 6181,-0.00009214,-0.00003211,0.00004715,-0.00322005,-0.00025650,-0.001
 88144,0.00030930,0.00025070,0.00022019,0.00164082,0.00097106,0.0000332
 6,0.00527667,-0.16725473,0.11774417,-0.00188969,0.01001431,-0.00886883
 ,0.00077590,-0.01388543,0.01663970,-0.01914697,0.18514590,0.00011297,-
 0.00006357,0.00004822,-0.00000606,0.00001307,0.00000929,-0.00003271,-0
 .00000664,0.00000551,0.00001400,-0.00000102,-0.00000382,-0.00025140,-0
 .00019549,0.00004967,-0.00011942,0.00002252,-0.00002360,0.00008906,-0.
 00002001,-0.00002049,0.00093895,-0.00005542,0.00118328,0.00022331,0.00
 007099,-0.00068850,-0.00125073,-0.00020807,-0.00035989,-0.00743718,0.1
 1882445,-0.17391851,-0.00026436,0.02104639,-0.02047821,0.00082973,-0.0
 0454474,0.00444422,0.01195273,-0.13329553,0.18103597,-0.17158357,0.073
 12876,0.02238656,-0.00664509,0.01462036,0.00543128,-0.03854391,0.02718
 549,0.00001587,-0.00606332,0.00632818,-0.00286497,-0.08022854,0.017402
 27,-0.00972321,0.00621157,-0.00785474,0.02175796,0.00197236,0.00309870
 ,-0.00447634,-0.00314704,0.02031855,-0.03332958,0.00165367,-0.00144993
 ,-0.00022588,-0.00586896,0.00382283,-0.00093406,0.00186826,-0.00060428
 ,-0.00025136,-0.00004934,0.00013502,0.00021499,-0.00018188,-0.00018719
 ,0.00009306,-0.00012856,0.00023338,-0.00003157,0.30147202,0.08745650,-
 0.12439695,-0.00661313,0.03247728,-0.02306126,-0.00094380,0.00298277,0
 .01115938,0.00028967,0.01893109,-0.01463238,0.00172870,0.00277316,-0.1
 0144671,0.07134885,0.00130105,-0.01464603,0.03197663,0.00215297,0.0121
 3110,-0.00682943,0.00402455,-0.01910737,0.02603737,-0.00181743,0.00122
 717,0.00056145,0.00516224,-0.00140285,0.00055393,-0.00103589,0.0009589
 6,0.00004731,0.00001786,-0.00020480,-0.00012803,0.00038965,0.00009419,
 -0.00000880,-0.00016540,-0.00005021,-0.00007862,-0.15701220,0.27135141
 ,-0.00930129,0.01807794,-0.08500439,0.01920924,-0.01085311,0.00407987,
 0.00138308,-0.00109258,0.00242003,-0.03058669,0.02239504,0.00144307,0.
 02127477,0.04527452,-0.19362701,0.00457668,0.01807734,-0.01918051,-0.0
 0274515,0.01942026,-0.04164660,-0.00533461,0.00832789,-0.00657706,-0.0
 0044945,-0.00034860,0.00139946,0.00031804,-0.00128913,0.00079446,0.000
 87337,-0.00066180,-0.00010826,-0.00014980,0.00023638,0.00014311,-0.000
 23507,-0.00004870,-0.00006479,0.00003744,0.00005553,0.00003373,0.00282
 322,-0.11747393,0.33427579,0.00203196,-0.00153579,-0.00006635,-0.00015
 531,0.00025141,0.00032631,-0.00007642,-0.00001494,0.00019277,-0.000130
 31,0.00035813,-0.00034620,-0.04153869,-0.02674727,-0.00224064,-0.00586
 702,0.00393639,-0.00148405,0.00243405,-0.00109216,-0.00036585,-0.15477
 565,-0.08655059,-0.01613216,-0.01048146,-0.01169927,-0.00742325,-0.014
 61212,-0.01738541,0.00332488,-0.19449495,0.08320180,0.01325857,-0.0200
 0858,0.01408444,0.00900881,-0.03458079,0.01702449,0.00246893,-0.018413
 05,0.01603377,-0.00476732,-0.00073768,0.00236180,-0.00169378,0.4914060
 1,-0.00016851,0.00043870,-0.00031642,-0.00012525,0.00002298,0.00002131
 ,0.00017345,-0.00003866,0.00000168,-0.00015282,-0.00003290,-0.00003057
 ,0.01008762,0.01337098,0.00236383,0.00503278,-0.00143321,-0.00018046,-
 0.00065436,0.00166514,0.00042885,-0.04449988,-0.15278058,-0.01704407,-
 0.02201751,-0.01833872,-0.00688545,-0.02818876,-0.02383756,-0.00158154
 ,0.04143097,-0.12335904,-0.01094092,0.01982424,-0.01002539,-0.00469119
 ,-0.01912310,0.01444368,0.00208407,0.02977311,-0.01523461,-0.00150832,
 0.00083480,0.00202636,-0.00009704,0.00777321,0.31311282,0.00018256,-0.
 00046714,0.00024829,-0.00003387,0.00011070,0.00002130,-0.00018510,0.00
 006087,-0.00002996,0.00007867,-0.00005122,0.00001072,-0.00008000,0.001
 19719,-0.00066376,0.00083979,-0.00057579,0.00082288,-0.00003908,0.0012
 7430,0.00018112,-0.00687316,-0.01616891,-0.06774602,-0.02569086,-0.022
 78407,0.00127705,0.01808743,0.01383177,0.01083470,0.00465788,-0.010413
 07,-0.06313091,0.02987269,-0.01646616,0.00440750,-0.00437474,0.0030542
 0,0.00088447,-0.02149558,0.00948927,0.00868315,-0.00088596,-0.00046817
 ,0.00161911,0.00593932,0.03837623,0.10258038\\-0.00000481,0.00000173,0
 .00000911,-0.00000146,-0.00000055,-0.00000256,-0.00000328,0.00000171,-
 0.00000118,-0.00000062,-0.00000017,-0.00000093,-0.00002016,-0.00001396
 ,0.00005441,0.00000253,0.00001175,-0.00001084,0.00000136,0.00000740,-0
 .00001433,-0.00002277,-0.00005462,-0.00000768,0.00001079,0.00001201,0.
 00000110,0.00001145,0.00001058,-0.00000437,-0.00000024,-0.00000980,-0.
 00000360,0.00000165,0.00000085,0.00000236,0.00000067,0.00000025,0.0000
 0088,0.00000358,-0.00000121,0.00000084,0.00001459,0.00000604,-0.000024
 11,0.00000672,0.00002802,0.00000091\\\@


 Discoveries are often made by not following instructions,
 by going off the main road, by trying the untried.
 -- Frank Tyger
 Job cpu time:       0 days  0 hours 17 minutes  1.5 seconds.
 File lengths (MBytes):  RWF=   1064 Int=      0 D2E=      0 Chk=     16 Scr=     16
 Normal termination of Gaussian 09 at Sun Jul  5 15:14:01 2020.
