 Entering Gaussian System, Link 0=g09
 Input=2oxygen_ether.gjf
 Output=2oxygen_ether.log
 Initial command:
 /gpfs/research/software/gaussian09/intel/g09.01/l1.exe "/gpfs/home/lrk19e/PEG_Li/Gau-10603.inp" -scrdir="/gpfs/home/lrk19e/PEG_Li/"
 Entering Link 1 = /gpfs/research/software/gaussian09/intel/g09.01/l1.exe PID=     10604.
  
 Copyright (c) 1988,1990,1992,1993,1995,1998,2003,2009,2015,
            Gaussian, Inc.  All Rights Reserved.
  
 This is part of the Gaussian(R) 09 program.  It is based on
 the Gaussian(R) 03 system (copyright 2003, Gaussian, Inc.),
 the Gaussian(R) 98 system (copyright 1998, Gaussian, Inc.),
 the Gaussian(R) 94 system (copyright 1995, Gaussian, Inc.),
 the Gaussian 92(TM) system (copyright 1992, Gaussian, Inc.),
 the Gaussian 90(TM) system (copyright 1990, Gaussian, Inc.),
 the Gaussian 88(TM) system (copyright 1988, Gaussian, Inc.),
 the Gaussian 86(TM) system (copyright 1986, Carnegie Mellon
 University), and the Gaussian 82(TM) system (copyright 1983,
 Carnegie Mellon University). Gaussian is a federally registered
 trademark of Gaussian, Inc.
  
 This software contains proprietary and confidential information,
 including trade secrets, belonging to Gaussian, Inc.
  
 This software is provided under written license and may be
 used, copied, transmitted, or stored only in accord with that
 written license.
  
 The following legend is applicable only to US Government
 contracts under FAR:
  
                    RESTRICTED RIGHTS LEGEND
  
 Use, reproduction and disclosure by the US Government is
 subject to restrictions as set forth in subparagraphs (a)
 and (c) of the Commercial Computer Software - Restricted
 Rights clause in FAR 52.227-19.
  
 Gaussian, Inc.
 340 Quinnipiac St., Bldg. 40, Wallingford CT 06492
  
  
 ---------------------------------------------------------------
 Warning -- This program may not be used in any manner that
 competes with the business of Gaussian, Inc. or will provide
 assistance to any competitor of Gaussian, Inc.  The licensee
 of this program is prohibited from giving any competitor of
 Gaussian, Inc. access to this program.  By using this program,
 the user acknowledges that Gaussian, Inc. is engaged in the
 business of creating and licensing software in the field of
 computational chemistry and represents and warrants to the
 licensee that it is not a competitor of Gaussian, Inc. and that
 it will not use this program in any manner prohibited above.
 ---------------------------------------------------------------
  

 Cite this work as:
 Gaussian 09, Revision E.01,
 M. J. Frisch, G. W. Trucks, H. B. Schlegel, G. E. Scuseria, 
 M. A. Robb, J. R. Cheeseman, G. Scalmani, V. Barone, B. Mennucci, 
 G. A. Petersson, H. Nakatsuji, M. Caricato, X. Li, H. P. Hratchian, 
 A. F. Izmaylov, J. Bloino, G. Zheng, J. L. Sonnenberg, M. Hada, 
 M. Ehara, K. Toyota, R. Fukuda, J. Hasegawa, M. Ishida, T. Nakajima, 
 Y. Honda, O. Kitao, H. Nakai, T. Vreven, J. A. Montgomery, Jr., 
 J. E. Peralta, F. Ogliaro, M. Bearpark, J. J. Heyd, E. Brothers, 
 K. N. Kudin, V. N. Staroverov, T. Keith, R. Kobayashi, J. Normand, 
 K. Raghavachari, A. Rendell, J. C. Burant, S. S. Iyengar, J. Tomasi, 
 M. Cossi, N. Rega, J. M. Millam, M. Klene, J. E. Knox, J. B. Cross, 
 V. Bakken, C. Adamo, J. Jaramillo, R. Gomperts, R. E. Stratmann, 
 O. Yazyev, A. J. Austin, R. Cammi, C. Pomelli, J. W. Ochterski, 
 R. L. Martin, K. Morokuma, V. G. Zakrzewski, G. A. Voth, 
 P. Salvador, J. J. Dannenberg, S. Dapprich, A. D. Daniels, 
 O. Farkas, J. B. Foresman, J. V. Ortiz, J. Cioslowski, 
 and D. J. Fox, Gaussian, Inc., Wallingford CT, 2013.
 
 ******************************************
 Gaussian 09:  ES64L-G09RevE.01 30-Nov-2015
                 5-Jul-2020 
 ******************************************
 %chk=2oxygen_ether.chk
 ----------------------------------------------------------------------
 # opt freq=noraman b3lyp/6-31++g(d,p) temperature=393.15 scrf=(smd,sol
 vent=ether) geom=connectivity empiricaldispersion=GD3 integral=UltraFi
 ne
 ----------------------------------------------------------------------
 1/14=-1,18=20,19=15,26=4,38=1,57=2,112=393150/1,3;
 2/9=110,12=2,17=6,18=5,40=1/2;
 3/5=1,6=6,7=1111,11=2,16=1,25=1,30=1,70=32201,71=1,72=8,74=-5,75=-5,124=31/1,2,3;
 4//1;
 5/5=2,38=5,53=8/2;
 6/7=2,8=2,9=2,10=2,28=1/1;
 7//1,2,3,16;
 1/14=-1,18=20,19=15,26=4/3(2);
 2/9=110/2;
 99//99;
 2/9=110/2;
 3/5=1,6=6,7=1111,11=2,16=1,25=1,30=1,70=32205,71=1,72=8,74=-5,75=-5,124=31/1,2,3;
 4/5=5,16=3,69=1/1;
 5/5=2,38=5,53=8/2;
 7//1,2,3,16;
 1/14=-1,18=20,19=15,26=4/3(-5);
 2/9=110/2;
 6/7=2,8=2,9=2,10=2,19=2,28=1/1;
 99/9=1/99;
 -------------------
 Title Card Required
 -------------------
 Symbolic Z-matrix:
 Charge =  0 Multiplicity = 1
 C                    -3.59733   1.03053   0. 
 H                    -3.24067   0.02172   0. 
 H                    -3.24066   1.53493  -0.87365 
 H                    -4.66733   1.03055   0. 
 C                    -1.54399   1.75403   1.25881 
 H                    -1.18572   2.25698   0.38498 
 H                    -1.18893   0.74466   1.26017 
 C                    -1.03065   2.48046   2.51595 
 H                    -1.38898   1.97757   3.38979 
 H                    -1.38563   3.48986   2.51455 
 C                     1.02269   3.20434   3.77454 
 H                     0.66436   2.70145   4.64839 
 H                     2.09269   3.20256   3.77556 
 H                     0.66771   4.21373   3.77314 
 O                    -3.08399   1.75649   1.2574 
 O                     0.50935   2.4779    2.51742 
 

 GradGradGradGradGradGradGradGradGradGradGradGradGradGradGradGradGradGrad
 Berny optimization.
 Initialization pass.
                           ----------------------------
                           !    Initial Parameters    !
                           ! (Angstroms and Degrees)  !
 --------------------------                            --------------------------
 ! Name  Definition              Value          Derivative Info.                !
 --------------------------------------------------------------------------------
 ! R1    R(1,2)                  1.07           estimate D2E/DX2                !
 ! R2    R(1,3)                  1.07           estimate D2E/DX2                !
 ! R3    R(1,4)                  1.07           estimate D2E/DX2                !
 ! R4    R(1,15)                 1.54           estimate D2E/DX2                !
 ! R5    R(5,6)                  1.07           estimate D2E/DX2                !
 ! R6    R(5,7)                  1.07           estimate D2E/DX2                !
 ! R7    R(5,8)                  1.54           estimate D2E/DX2                !
 ! R8    R(5,15)                 1.54           estimate D2E/DX2                !
 ! R9    R(8,9)                  1.07           estimate D2E/DX2                !
 ! R10   R(8,10)                 1.07           estimate D2E/DX2                !
 ! R11   R(8,16)                 1.54           estimate D2E/DX2                !
 ! R12   R(11,12)                1.07           estimate D2E/DX2                !
 ! R13   R(11,13)                1.07           estimate D2E/DX2                !
 ! R14   R(11,14)                1.07           estimate D2E/DX2                !
 ! R15   R(11,16)                1.54           estimate D2E/DX2                !
 ! A1    A(2,1,3)              109.4712         estimate D2E/DX2                !
 ! A2    A(2,1,4)              109.4712         estimate D2E/DX2                !
 ! A3    A(2,1,15)             109.4712         estimate D2E/DX2                !
 ! A4    A(3,1,4)              109.4712         estimate D2E/DX2                !
 ! A5    A(3,1,15)             109.4713         estimate D2E/DX2                !
 ! A6    A(4,1,15)             109.4712         estimate D2E/DX2                !
 ! A7    A(6,5,7)              109.4712         estimate D2E/DX2                !
 ! A8    A(6,5,8)              109.4713         estimate D2E/DX2                !
 ! A9    A(6,5,15)             109.4712         estimate D2E/DX2                !
 ! A10   A(7,5,8)              109.4712         estimate D2E/DX2                !
 ! A11   A(7,5,15)             109.4712         estimate D2E/DX2                !
 ! A12   A(8,5,15)             109.4712         estimate D2E/DX2                !
 ! A13   A(5,8,9)              109.4712         estimate D2E/DX2                !
 ! A14   A(5,8,10)             109.4712         estimate D2E/DX2                !
 ! A15   A(5,8,16)             109.4712         estimate D2E/DX2                !
 ! A16   A(9,8,10)             109.4712         estimate D2E/DX2                !
 ! A17   A(9,8,16)             109.4713         estimate D2E/DX2                !
 ! A18   A(10,8,16)            109.4712         estimate D2E/DX2                !
 ! A19   A(12,11,13)           109.4713         estimate D2E/DX2                !
 ! A20   A(12,11,14)           109.4712         estimate D2E/DX2                !
 ! A21   A(12,11,16)           109.4712         estimate D2E/DX2                !
 ! A22   A(13,11,14)           109.4712         estimate D2E/DX2                !
 ! A23   A(13,11,16)           109.4712         estimate D2E/DX2                !
 ! A24   A(14,11,16)           109.4712         estimate D2E/DX2                !
 ! A25   A(1,15,5)             109.4712         estimate D2E/DX2                !
 ! A26   A(8,16,11)            109.4712         estimate D2E/DX2                !
 ! D1    D(2,1,15,5)            59.8889         estimate D2E/DX2                !
 ! D2    D(3,1,15,5)           -60.1111         estimate D2E/DX2                !
 ! D3    D(4,1,15,5)           179.8889         estimate D2E/DX2                !
 ! D4    D(6,5,8,9)            179.9953         estimate D2E/DX2                !
 ! D5    D(6,5,8,10)            59.9953         estimate D2E/DX2                !
 ! D6    D(6,5,8,16)           -60.0047         estimate D2E/DX2                !
 ! D7    D(7,5,8,9)            -60.0047         estimate D2E/DX2                !
 ! D8    D(7,5,8,10)           179.9953         estimate D2E/DX2                !
 ! D9    D(7,5,8,16)            59.9953         estimate D2E/DX2                !
 ! D10   D(15,5,8,9)            59.9953         estimate D2E/DX2                !
 ! D11   D(15,5,8,10)          -60.0047         estimate D2E/DX2                !
 ! D12   D(15,5,8,16)          179.9953         estimate D2E/DX2                !
 ! D13   D(6,5,15,1)            59.9786         estimate D2E/DX2                !
 ! D14   D(7,5,15,1)           -60.0214         estimate D2E/DX2                !
 ! D15   D(8,5,15,1)           179.9786         estimate D2E/DX2                !
 ! D16   D(5,8,16,11)          179.9995         estimate D2E/DX2                !
 ! D17   D(9,8,16,11)          -60.0005         estimate D2E/DX2                !
 ! D18   D(10,8,16,11)          59.9995         estimate D2E/DX2                !
 ! D19   D(12,11,16,8)          59.9999         estimate D2E/DX2                !
 ! D20   D(13,11,16,8)         179.9999         estimate D2E/DX2                !
 ! D21   D(14,11,16,8)         -60.0001         estimate D2E/DX2                !
 --------------------------------------------------------------------------------
 Trust Radius=3.00D-01 FncErr=1.00D-07 GrdErr=1.00D-06
 Number of steps in this run=     72 maximum allowed number of steps=    100.
 GradGradGradGradGradGradGradGradGradGradGradGradGradGradGradGradGradGrad

                          Input orientation:                          
 ---------------------------------------------------------------------
 Center     Atomic      Atomic             Coordinates (Angstroms)
 Number     Number       Type             X           Y           Z
 ---------------------------------------------------------------------
      1          6           0       -3.597328    1.030534    0.000000
      2          1           0       -3.240674    0.021724    0.000000
      3          1           0       -3.240655    1.534933   -0.873652
      4          1           0       -4.667328    1.030548    0.000000
      5          6           0       -1.543989    1.754034    1.258814
      6          1           0       -1.185720    2.256976    0.384975
      7          1           0       -1.188932    0.744662    1.260167
      8          6           0       -1.030646    2.480460    2.515948
      9          1           0       -1.388983    1.977565    3.389785
     10          1           0       -1.385635    3.489856    2.514553
     11          6           0        1.022694    3.204336    3.774544
     12          1           0        0.664355    2.701450    4.648385
     13          1           0        2.092692    3.202556    3.775565
     14          1           0        0.667707    4.213733    3.773139
     15          8           0       -3.083986    1.756491    1.257405
     16          8           0        0.509351    2.477900    2.517416
 ---------------------------------------------------------------------
                    Distance matrix (angstroms):
                    1          2          3          4          5
     1  C    0.000000
     2  H    1.070000   0.000000
     3  H    1.070000   1.747302   0.000000
     4  H    1.070000   1.747303   1.747303   0.000000
     5  C    2.514810   2.732078   2.733878   3.444313   0.000000
     6  H    2.732804   3.060619   2.515601   3.711324   1.070000
     7  H    2.733151   2.514021   3.063867   3.710659   1.070000
     8  C    3.875582   4.154467   4.155423   4.653783   1.540000
     9  H    4.155033   4.329517   4.669208   4.809889   2.148263
    10  H    4.154856   4.668199   4.329290   4.810477   2.148263
    11  C    6.349582   6.523228   6.524475   7.165814   3.875581
    12  H    6.523909   6.636089   6.863145   7.268167   4.154946
    13  H    7.165814   7.267556   7.269166   8.041790   4.653783
    14  H    6.523792   6.861848   6.636560   7.268552   4.154943
    15  O    1.540000   2.148263   2.148263   2.148263   1.540000
    16  O    5.029619   5.141291   5.143061   5.935505   2.514809
                    6          7          8          9         10
     6  H    0.000000
     7  H    1.747303   0.000000
     8  C    2.148263   2.148263   0.000000
     9  H    3.024610   2.468875   1.070000   0.000000
    10  H    2.468817   3.024610   1.070000   1.747303   0.000000
    11  C    4.154967   4.154922   2.514809   2.732982   2.732973
    12  H    4.668726   4.329402   2.732976   2.514813   3.062235
    13  H    4.810218   4.810148   3.444314   3.710995   3.710990
    14  H    4.329404   4.668682   2.732978   3.062251   2.514806
    15  O    2.148263   2.148263   2.514809   2.732939   2.733016
    16  O    2.733016   2.732939   1.540000   2.148263   2.148263
                   11         12         13         14         15
    11  C    0.000000
    12  H    1.070000   0.000000
    13  H    1.070000   1.747303   0.000000
    14  H    1.070000   1.747303   1.747303   0.000000
    15  O    5.029618   5.142155   5.935506   5.142194   0.000000
    16  O    1.540000   2.148263   2.148263   2.148263   3.875581
                   16
    16  O    0.000000
 Stoichiometry    C4H10O2
 Framework group  C1[X(C4H10O2)]
 Deg. of freedom    42
 Full point group                 C1      NOp   1
 Largest Abelian subgroup         C1      NOp   1
 Largest concise Abelian subgroup C1      NOp   1
                         Standard orientation:                         
 ---------------------------------------------------------------------
 Center     Atomic      Atomic             Coordinates (Angstroms)
 Number     Number       Type             X           Y           Z
 ---------------------------------------------------------------------
      1          6           0       -3.170624    0.162616    0.000188
      2          1           0       -3.224969    0.779575   -0.872341
      3          1           0       -3.226400    0.776267    0.874957
      4          1           0       -3.985737   -0.530555   -0.001792
      5          6           0       -0.665823    0.386756   -0.000152
      6          1           0       -0.720959    1.002121    0.873453
      7          1           0       -0.720807    1.002003   -0.873850
      8          6           0        0.665823   -0.386756    0.000015
      9          1           0        0.720922   -1.002183   -0.873549
     10          1           0        0.720843   -1.001941    0.873754
     11          6           0        3.170624   -0.162617    0.000110
     12          1           0        3.225727   -0.778050   -0.873449
     13          1           0        3.985738    0.530556    0.000049
     14          1           0        3.225640   -0.777795    0.873854
     15          8           0       -1.838978   -0.610895   -0.000186
     16          8           0        1.838978    0.610895   -0.000070
 ---------------------------------------------------------------------
 Rotational constants (GHZ):     17.3122407      1.1421305      1.1001516
 Standard basis: 6-31++G(d,p) (6D, 7F)
 There are   174 symmetry adapted cartesian basis functions of A   symmetry.
 There are   174 symmetry adapted basis functions of A   symmetry.
   174 basis functions,   272 primitive gaussians,   174 cartesian basis functions
    25 alpha electrons       25 beta electrons
       nuclear repulsion energy       240.3807723412 Hartrees.
 NAtoms=   16 NActive=   16 NUniq=   16 SFac= 1.00D+00 NAtFMM=   60 NAOKFM=F Big=F
 Integral buffers will be    131072 words long.
 Raffenetti 2 integral format.
 Two-electron integral symmetry is turned on.
 Nuclear repulsion after empirical dispersion term =      240.3713793759 Hartrees.
 ------------------------------------------------------------------------------
 Polarizable Continuum Model (PCM)
 =================================
 Model                : PCM (using non-symmetric T matrix).
 Atomic radii         : SMD-Coulomb.
 Polarization charges : Total charges.
 Charge compensation  : None.
 Solution method      : On-the-fly selection.
 Cavity type          : VdW (van der Waals Surface) (Alpha=1.000).
 Cavity algorithm     : GePol (No added spheres)
                        Default sphere list used, NSphG=   16.
                        Lebedev-Laikov grids with approx.  5.0 points / Ang**2.
                        Smoothing algorithm: York/Karplus (Gamma=1.0000).
                        Polarization charges: spherical gaussians, with
                                              point-specific exponents (IZeta= 3).
                        Self-potential: point-specific (ISelfS= 7).
                        Self-field    : sphere-specific E.n sum rule (ISelfD= 2).
 1st derivatives      : Analytical E(r).r(x)/FMM algorithm (CHGder, D1EAlg=3).
                        Cavity 1st derivative terms included.
 Solvent              : DiethylEther, Eps=   4.240000 Eps(inf)=   1.829527
 ------------------------------------------------------------------------------
 Spheres list:
 ISph  on   Nord     Re0    Alpha      Xe            Ye            Ze
    1   C      1    1.8500  1.000     -3.170624      0.162616      0.000188
    2   H      2    1.2000  1.000     -3.224969      0.779575     -0.872341
    3   H      3    1.2000  1.000     -3.226400      0.776267      0.874957
    4   H      4    1.2000  1.000     -3.985737     -0.530555     -0.001792
    5   C      5    1.8500  1.000     -0.665823      0.386756     -0.000152
    6   H      6    1.2000  1.000     -0.720959      1.002121      0.873453
    7   H      7    1.2000  1.000     -0.720807      1.002003     -0.873850
    8   C      8    1.8500  1.000      0.665823     -0.386756      0.000015
    9   H      9    1.2000  1.000      0.720922     -1.002183     -0.873549
   10   H     10    1.2000  1.000      0.720843     -1.001941      0.873754
   11   C     11    1.8500  1.000      3.170624     -0.162617      0.000110
   12   H     12    1.2000  1.000      3.225727     -0.778050     -0.873449
   13   H     13    1.2000  1.000      3.985738      0.530556      0.000049
   14   H     14    1.2000  1.000      3.225640     -0.777795      0.873854
   15   O     15    2.2940  1.000     -1.838978     -0.610895     -0.000186
   16   O     16    2.2940  1.000      1.838978      0.610895     -0.000070
 ------------------------------------------------------------------------------
 ------------------------------------------------------------------------------
 Atomic radii for non-electrostatic terms: SMD-CDS.
 ------------------------------------------------------------------------------
 Nuclear repulsion after PCM non-electrostatic terms =      240.3697829315 Hartrees.
 One-electron integrals computed using PRISM.
 NBasis=   174 RedAO= T EigKep=  5.06D-05  NBF=   174
 NBsUse=   174 1.00D-06 EigRej= -1.00D+00 NBFU=   174
 ExpMin= 3.60D-02 ExpMax= 5.48D+03 ExpMxC= 8.25D+02 IAcc=3 IRadAn=         5 AccDes= 0.00D+00
 Harris functional with IExCor=  402 and IRadAn=       5 diagonalized for initial guess.
 HarFok:  IExCor=  402 AccDes= 0.00D+00 IRadAn=         5 IDoV= 1 UseB2=F ITyADJ=14
 ICtDFT=  3500011 ScaDFX=  1.000000  1.000000  1.000000  1.000000
 FoFCou: FMM=F IPFlag=           0 FMFlag=      100000 FMFlg1=           0
         NFxFlg=           0 DoJE=T BraDBF=F KetDBF=T FulRan=T
         wScrn=  0.000000 ICntrl=     500 IOpCl=  0 I1Cent=   200000004 NGrid=           0
         NMat0=    1 NMatS0=      1 NMatT0=    0 NMatD0=    1 NMtDS0=    0 NMtDT0=    0
 Petite list used in FoFCou.
 Requested convergence on RMS density matrix=1.00D-08 within 128 cycles.
 Requested convergence on MAX density matrix=1.00D-06.
 Requested convergence on             energy=1.00D-06.
 No special actions if energy rises.
 Inv3:  Mode=1 IEnd=     5195568.
 Iteration    1 A*A^-1 deviation from unit magnitude is 5.55D-15 for   1301.
 Iteration    1 A*A^-1 deviation from orthogonality  is 2.16D-15 for    644    372.
 Iteration    1 A^-1*A deviation from unit magnitude is 5.55D-15 for   1301.
 Iteration    1 A^-1*A deviation from orthogonality  is 2.33D-15 for    913    549.
 Error on total polarization charges =  0.02618
 SCF Done:  E(RB3LYP) =  -308.869012395     A.U. after   10 cycles
            NFock= 10  Conv=0.19D-08     -V/T= 2.0106
 SMD-CDS (non-electrostatic) energy       (kcal/mol) =      -1.00
 (included in total energy above)

 **********************************************************************

            Population analysis using the SCF density.

 **********************************************************************

 Orbital symmetries:
       Occupied  (A) (A) (A) (A) (A) (A) (A) (A) (A) (A) (A) (A)
                 (A) (A) (A) (A) (A) (A) (A) (A) (A) (A) (A) (A)
                 (A)
       Virtual   (A) (A) (A) (A) (A) (A) (A) (A) (A) (A) (A) (A)
                 (A) (A) (A) (A) (A) (A) (A) (A) (A) (A) (A) (A)
                 (A) (A) (A) (A) (A) (A) (A) (A) (A) (A) (A) (A)
                 (A) (A) (A) (A) (A) (A) (A) (A) (A) (A) (A) (A)
                 (A) (A) (A) (A) (A) (A) (A) (A) (A) (A) (A) (A)
                 (A) (A) (A) (A) (A) (A) (A) (A) (A) (A) (A) (A)
                 (A) (A) (A) (A) (A) (A) (A) (A) (A) (A) (A) (A)
                 (A) (A) (A) (A) (A) (A) (A) (A) (A) (A) (A) (A)
                 (A) (A) (A) (A) (A) (A) (A) (A) (A) (A) (A) (A)
                 (A) (A) (A) (A) (A) (A) (A) (A) (A) (A) (A) (A)
                 (A) (A) (A) (A) (A) (A) (A) (A) (A) (A) (A) (A)
                 (A) (A) (A) (A) (A) (A) (A) (A) (A) (A) (A) (A)
                 (A) (A) (A) (A) (A)
 The electronic state is 1-A.
 Alpha  occ. eigenvalues --  -19.15895 -19.15895 -10.23099 -10.23078 -10.22192
 Alpha  occ. eigenvalues --  -10.22191  -0.98090  -0.97218  -0.75006  -0.68673
 Alpha  occ. eigenvalues --   -0.66363  -0.60749  -0.48263  -0.46523  -0.45082
 Alpha  occ. eigenvalues --   -0.44038  -0.42421  -0.41972  -0.41850  -0.37185
 Alpha  occ. eigenvalues --   -0.36068  -0.32654  -0.31880  -0.26322  -0.25869
 Alpha virt. eigenvalues --   -0.00061   0.00612   0.01011   0.02439   0.02553
 Alpha virt. eigenvalues --    0.02956   0.04079   0.04466   0.06263   0.07022
 Alpha virt. eigenvalues --    0.07217   0.07660   0.08857   0.10269   0.11632
 Alpha virt. eigenvalues --    0.12589   0.12848   0.13339   0.13509   0.13626
 Alpha virt. eigenvalues --    0.14757   0.15624   0.16127   0.16449   0.16609
 Alpha virt. eigenvalues --    0.16633   0.18549   0.18868   0.20040   0.22145
 Alpha virt. eigenvalues --    0.22738   0.23445   0.23779   0.24323   0.24692
 Alpha virt. eigenvalues --    0.25052   0.27314   0.28872   0.30889   0.32273
 Alpha virt. eigenvalues --    0.33765   0.34993   0.35176   0.36469   0.38388
 Alpha virt. eigenvalues --    0.38990   0.39834   0.40506   0.42478   0.62672
 Alpha virt. eigenvalues --    0.65626   0.69127   0.71717   0.72545   0.72564
 Alpha virt. eigenvalues --    0.73611   0.73991   0.80099   0.81887   0.84252
 Alpha virt. eigenvalues --    0.85596   0.87877   0.92176   0.97130   1.00111
 Alpha virt. eigenvalues --    1.00152   1.00471   1.04621   1.08723   1.12222
 Alpha virt. eigenvalues --    1.12798   1.19087   1.22110   1.22446   1.26533
 Alpha virt. eigenvalues --    1.26635   1.29257   1.33125   1.36679   1.40191
 Alpha virt. eigenvalues --    1.43057   1.45807   1.45927   1.47196   1.51779
 Alpha virt. eigenvalues --    1.55608   1.65524   1.66661   1.69709   1.74737
 Alpha virt. eigenvalues --    1.82195   1.85932   1.88398   1.90122   1.90135
 Alpha virt. eigenvalues --    1.91402   1.94225   1.94803   1.95499   1.96607
 Alpha virt. eigenvalues --    2.00482   2.04029   2.04159   2.10427   2.12615
 Alpha virt. eigenvalues --    2.15336   2.15507   2.17023   2.20065   2.25973
 Alpha virt. eigenvalues --    2.29850   2.42631   2.47283   2.51422   2.54377
 Alpha virt. eigenvalues --    2.55188   2.56979   2.65556   2.66801   2.68295
 Alpha virt. eigenvalues --    2.68503   2.70498   2.73068   2.77610   2.83611
 Alpha virt. eigenvalues --    2.84213   2.89316   2.90778   2.91272   2.91886
 Alpha virt. eigenvalues --    2.95376   2.98776   3.01645   3.29773   3.31085
 Alpha virt. eigenvalues --    3.35881   3.42931   3.44933   3.47088   3.47855
 Alpha virt. eigenvalues --    3.49653   3.51788   3.58305   4.18662   4.25103
 Alpha virt. eigenvalues --    4.41562   4.54240   4.54603   4.64727
          Condensed to atoms (all electrons):
               1          2          3          4          5          6
     1  C    5.016950   0.415366   0.415299   0.401208  -0.068161  -0.005041
     2  H    0.415366   0.539006  -0.044645  -0.022385  -0.011622  -0.008092
     3  H    0.415299  -0.044645   0.538921  -0.022388  -0.011540   0.009990
     4  H    0.401208  -0.022385  -0.022388   0.487801   0.007341   0.001033
     5  C   -0.068161  -0.011622  -0.011540   0.007341   5.174441   0.391161
     6  H   -0.005041  -0.008092   0.009990   0.001033   0.391161   0.615581
     7  H   -0.005194   0.010021  -0.008009   0.000992   0.390995  -0.087562
     8  C   -0.012390   0.002314   0.002345  -0.002162   0.270723  -0.035716
     9  H   -0.000274  -0.001668   0.001182   0.000085  -0.035427   0.033619
    10  H   -0.000313   0.001187  -0.001660   0.000072  -0.035772  -0.043540
    11  C    0.001081  -0.000164  -0.000164   0.000241  -0.012390  -0.000300
    12  H   -0.000163   0.000145  -0.000084  -0.000026   0.002361   0.001185
    13  H    0.000241  -0.000026  -0.000026   0.000029  -0.002162   0.000077
    14  H   -0.000165  -0.000084   0.000145  -0.000026   0.002298  -0.001663
    15  O    0.104055  -0.046390  -0.046454  -0.029187   0.182325  -0.050947
    16  O    0.002684  -0.000404  -0.000404   0.000159  -0.051435   0.007109
               7          8          9         10         11         12
     1  C   -0.005194  -0.012390  -0.000274  -0.000313   0.001081  -0.000163
     2  H    0.010021   0.002314  -0.001668   0.001187  -0.000164   0.000145
     3  H   -0.008009   0.002345   0.001182  -0.001660  -0.000164  -0.000084
     4  H    0.000992  -0.002162   0.000085   0.000072   0.000241  -0.000026
     5  C    0.390995   0.270723  -0.035427  -0.035772  -0.012390   0.002361
     6  H   -0.087562  -0.035716   0.033619  -0.043540  -0.000300   0.001185
     7  H    0.615573  -0.035482  -0.043516   0.033626  -0.000288  -0.001665
     8  C   -0.035482   5.174441   0.390904   0.391253  -0.068162  -0.011612
     9  H   -0.043516   0.390904   0.615581  -0.087562  -0.005136   0.010008
    10  H    0.033626   0.391253  -0.087562   0.615573  -0.005099  -0.008051
    11  C   -0.000288  -0.068162  -0.005136  -0.005099   5.016949   0.415326
    12  H   -0.001665  -0.011612   0.010008  -0.008051   0.415326   0.538965
    13  H    0.000079   0.007341   0.001010   0.001015   0.401208  -0.022389
    14  H    0.001184  -0.011550  -0.008050   0.010003   0.415339  -0.044645
    15  O   -0.050903  -0.051435   0.007091   0.007129   0.002684  -0.000403
    16  O    0.007111   0.182326  -0.050922  -0.050929   0.104055  -0.046420
              13         14         15         16
     1  C    0.000241  -0.000165   0.104055   0.002684
     2  H   -0.000026  -0.000084  -0.046390  -0.000404
     3  H   -0.000026   0.000145  -0.046454  -0.000404
     4  H    0.000029  -0.000026  -0.029187   0.000159
     5  C   -0.002162   0.002298   0.182325  -0.051435
     6  H    0.000077  -0.001663  -0.050947   0.007109
     7  H    0.000079   0.001184  -0.050903   0.007111
     8  C    0.007341  -0.011550  -0.051435   0.182326
     9  H    0.001010  -0.008050   0.007091  -0.050922
    10  H    0.001015   0.010003   0.007129  -0.050929
    11  C    0.401208   0.415339   0.002684   0.104055
    12  H   -0.022389  -0.044645  -0.000403  -0.046420
    13  H    0.487801  -0.022384   0.000159  -0.029187
    14  H   -0.022384   0.538963  -0.000405  -0.046425
    15  O    0.000159  -0.000405   8.366787   0.005865
    16  O   -0.029187  -0.046425   0.005865   8.366787
 Mulliken charges:
               1
     1  C   -0.265182
     2  H    0.167441
     3  H    0.167493
     4  H    0.177214
     5  C   -0.193137
     6  H    0.173106
     7  H    0.173037
     8  C   -0.193138
     9  H    0.173075
    10  H    0.173068
    11  C   -0.265181
    12  H    0.167467
    13  H    0.177214
    14  H    0.167466
    15  O   -0.399971
    16  O   -0.399971
 Sum of Mulliken charges =  -0.00000
 Mulliken charges with hydrogens summed into heavy atoms:
               1
     1  C    0.246965
     5  C    0.153006
     8  C    0.153005
    11  C    0.246965
    15  O   -0.399971
    16  O   -0.399971
 Electronic spatial extent (au):  <R**2>=           1067.7331
 Charge=             -0.0000 electrons
 Dipole moment (field-independent basis, Debye):
    X=             -0.0000    Y=              0.0000    Z=              0.0007  Tot=              0.0007
 Quadrupole moment (field-independent basis, Debye-Ang):
   XX=            -27.0934   YY=            -41.3266   ZZ=            -38.5546
   XY=             -7.5854   XZ=             -0.0000   YZ=             -0.0003
 Traceless Quadrupole moment (field-independent basis, Debye-Ang):
   XX=              8.5648   YY=             -5.6684   ZZ=             -2.8964
   XY=             -7.5854   XZ=             -0.0000   YZ=             -0.0003
 Octapole moment (field-independent basis, Debye-Ang**2):
  XXX=              0.0000  YYY=              0.0000  ZZZ=              0.0038  XYY=              0.0000
  XXY=              0.0000  XXZ=              0.0013  XZZ=             -0.0000  YZZ=             -0.0000
  YYZ=             -0.0030  XYZ=             -0.0001
 Hexadecapole moment (field-independent basis, Debye-Ang**3):
 XXXX=           -992.1738 YYYY=           -115.7042 ZZZZ=            -66.2864 XXXY=             -3.5237
 XXXZ=              0.0196 YYYX=              0.1616 YYYZ=             -0.0024 ZZZX=             -0.0110
 ZZZY=              0.0008 XXYY=           -228.3149 XXZZ=           -217.9037 YYZZ=            -28.6149
 XXYZ=              0.0089 YYXZ=              0.0079 ZZXY=             -5.0553
 N-N= 2.403697829315D+02 E-N=-1.201382078849D+03  KE= 3.056274861772D+02
 D1PCM: PCM CHGder 1st derivatives, ID1Alg=3 FixD1E=F DoIter=F DoCFld=F I1PDM=0.
 Calling FoFJK, ICntrl=      2127 FMM=F ISym2X=0 I1Cent= 0 IOpClX= 0 NMat=1 NMatS=1 NMatT=0.
 ***** Axes restored to original set *****
 -------------------------------------------------------------------
 Center     Atomic                   Forces (Hartrees/Bohr)
 Number     Number              X              Y              Z
 -------------------------------------------------------------------
      1        6           0.025763306    0.024403852    0.042279538
      2        1           0.006357757   -0.016699150    0.001712400
      3        1           0.006370206    0.009833160   -0.013601014
      4        1          -0.014886640    0.004332911    0.007502623
      5        6          -0.035545323    0.009524130    0.016309365
      6        1           0.003056206    0.008153369   -0.016031325
      7        1           0.002997151   -0.017971799   -0.000912711
      8        6           0.035545308   -0.009518438   -0.016312764
      9        1          -0.003055748   -0.008152925    0.016031507
     10        1          -0.002997557    0.017971891    0.000912268
     11        6          -0.025763301   -0.024410468   -0.042275785
     12        1          -0.006393378   -0.009807913    0.013607662
     13        1           0.014886597   -0.004364581   -0.007484281
     14        1          -0.006334496    0.016705965   -0.001737551
     15        8           0.027515324   -0.017504832   -0.030140323
     16        8          -0.027515411    0.017504830    0.030140392
 -------------------------------------------------------------------
 Cartesian Forces:  Max     0.042279538 RMS     0.018535732

 GradGradGradGradGradGradGradGradGradGradGradGradGradGradGradGradGradGrad
 Berny optimization.
 FormGI is forming the generalized inverse of G from B-inverse, IUseBI=4.
 GSVD:  received Info=                   1 from GESDD.
 Internal  Forces:  Max     0.051114780 RMS     0.015328630
 Search for a local minimum.
 Step number   1 out of a maximum of   72
 All quantities printed in internal units (Hartrees-Bohrs-Radians)
 Mixed Optimization -- RFO/linear search
 Second derivative matrix not updated -- first step.
 ITU=  0
     Eigenvalues ---    0.00230   0.00230   0.00230   0.00230   0.00237
     Eigenvalues ---    0.04987   0.04987   0.05767   0.05767   0.09935
     Eigenvalues ---    0.09935   0.09935   0.09935   0.10913   0.10913
     Eigenvalues ---    0.13572   0.13572   0.16000   0.16000   0.16000
     Eigenvalues ---    0.16000   0.16000   0.16000   0.22064   0.22064
     Eigenvalues ---    0.25000   0.25000   0.28519   0.28519   0.28519
     Eigenvalues ---    0.28519   0.28519   0.37230   0.37230   0.37230
     Eigenvalues ---    0.37230   0.37230   0.37230   0.37230   0.37230
     Eigenvalues ---    0.37230   0.37230
 RFO step:  Lambda=-4.42906099D-02 EMin= 2.30000000D-03
 Linear search not attempted -- first point.
 Maximum step size (   0.300) exceeded in Quadratic search.
    -- Step size scaled by   0.815
 Iteration  1 RMS(Cart)=  0.11020860 RMS(Int)=  0.00075295
 Iteration  2 RMS(Cart)=  0.00076386 RMS(Int)=  0.00021808
 Iteration  3 RMS(Cart)=  0.00000080 RMS(Int)=  0.00021808
 Variable       Old X    -DE/DX   Delta X   Delta X   Delta X     New X
                                 (Linear)    (Quad)   (Total)
    R1        2.02201   0.01786   0.00000   0.03495   0.03495   2.05696
    R2        2.02201   0.01786   0.00000   0.03495   0.03495   2.05696
    R3        2.02201   0.01489   0.00000   0.02913   0.02913   2.05114
    R4        2.91018  -0.04912   0.00000  -0.12153  -0.12153   2.78865
    R5        2.02201   0.01795   0.00000   0.03512   0.03512   2.05713
    R6        2.02201   0.01795   0.00000   0.03512   0.03512   2.05712
    R7        2.91018  -0.01494   0.00000  -0.03697  -0.03697   2.87320
    R8        2.91018  -0.05111   0.00000  -0.12647  -0.12647   2.78371
    R9        2.02201   0.01795   0.00000   0.03512   0.03512   2.05713
   R10        2.02201   0.01795   0.00000   0.03512   0.03512   2.05713
   R11        2.91018  -0.05111   0.00000  -0.12647  -0.12647   2.78371
   R12        2.02201   0.01786   0.00000   0.03495   0.03495   2.05696
   R13        2.02201   0.01489   0.00000   0.02913   0.02913   2.05114
   R14        2.02201   0.01786   0.00000   0.03495   0.03495   2.05696
   R15        2.91018  -0.04912   0.00000  -0.12153  -0.12153   2.78865
    A1        1.91063   0.00308   0.00000   0.01698   0.01685   1.92749
    A2        1.91063   0.00456   0.00000   0.01584   0.01558   1.92622
    A3        1.91063   0.00039   0.00000   0.00272   0.00253   1.91317
    A4        1.91063   0.00456   0.00000   0.01587   0.01561   1.92624
    A5        1.91063   0.00037   0.00000   0.00266   0.00248   1.91311
    A6        1.91063  -0.01296   0.00000  -0.05406  -0.05431   1.85632
    A7        1.91063  -0.00170   0.00000   0.00570   0.00513   1.91577
    A8        1.91063   0.00581   0.00000   0.02259   0.02219   1.93283
    A9        1.91063   0.00266   0.00000  -0.00024  -0.00002   1.91062
   A10        1.91063   0.00582   0.00000   0.02260   0.02221   1.93284
   A11        1.91063   0.00265   0.00000  -0.00026  -0.00004   1.91059
   A12        1.91063  -0.01524   0.00000  -0.05040  -0.05031   1.86032
   A13        1.91063   0.00582   0.00000   0.02260   0.02220   1.93283
   A14        1.91063   0.00582   0.00000   0.02260   0.02220   1.93283
   A15        1.91063  -0.01524   0.00000  -0.05040  -0.05031   1.86032
   A16        1.91063  -0.00170   0.00000   0.00570   0.00513   1.91577
   A17        1.91063   0.00266   0.00000  -0.00025  -0.00003   1.91061
   A18        1.91063   0.00266   0.00000  -0.00025  -0.00003   1.91061
   A19        1.91063   0.00456   0.00000   0.01585   0.01559   1.92623
   A20        1.91063   0.00308   0.00000   0.01698   0.01685   1.92749
   A21        1.91063   0.00038   0.00000   0.00269   0.00251   1.91314
   A22        1.91063   0.00456   0.00000   0.01585   0.01559   1.92623
   A23        1.91063  -0.01296   0.00000  -0.05406  -0.05431   1.85632
   A24        1.91063   0.00038   0.00000   0.00269   0.00250   1.91314
   A25        1.91063  -0.00766   0.00000  -0.02122  -0.02122   1.88942
   A26        1.91063  -0.00766   0.00000  -0.02122  -0.02122   1.88942
    D1        1.04526   0.00213   0.00000   0.01216   0.01205   1.05731
    D2       -1.04914  -0.00212   0.00000  -0.01193  -0.01181  -1.06095
    D3        3.13965   0.00001   0.00000   0.00012   0.00012   3.13977
    D4        3.14151   0.00000   0.00000   0.00000   0.00000   3.14151
    D5        1.04712  -0.00504   0.00000  -0.03465  -0.03513   1.01198
    D6       -1.04728  -0.00252   0.00000  -0.01733  -0.01757  -1.06485
    D7       -1.04728   0.00504   0.00000   0.03466   0.03514  -1.01214
    D8        3.14151   0.00000   0.00000   0.00000   0.00000   3.14151
    D9        1.04712   0.00252   0.00000   0.01733   0.01757   1.06468
   D10        1.04712   0.00252   0.00000   0.01732   0.01756   1.06467
   D11       -1.04728  -0.00252   0.00000  -0.01734  -0.01757  -1.06485
   D12        3.14151  -0.00000   0.00000  -0.00001  -0.00001   3.14150
   D13        1.04682   0.00058   0.00000   0.00332   0.00311   1.04994
   D14       -1.04757  -0.00058   0.00000  -0.00335  -0.00315  -1.05072
   D15        3.14122  -0.00000   0.00000  -0.00002  -0.00002   3.14120
   D16        3.14158   0.00000   0.00000  -0.00000  -0.00000   3.14158
   D17       -1.04721  -0.00058   0.00000  -0.00334  -0.00313  -1.05034
   D18        1.04719   0.00058   0.00000   0.00333   0.00313   1.05032
   D19        1.04720   0.00212   0.00000   0.01204   0.01193   1.05912
   D20        3.14159  -0.00000   0.00000  -0.00000  -0.00000   3.14159
   D21       -1.04720  -0.00212   0.00000  -0.01205  -0.01193  -1.05913
         Item               Value     Threshold  Converged?
 Maximum Force            0.051115     0.000450     NO 
 RMS     Force            0.015329     0.000300     NO 
 Maximum Displacement     0.254008     0.001800     NO 
 RMS     Displacement     0.110240     0.001200     NO 
 Predicted change in Energy=-2.348147D-02
 GradGradGradGradGradGradGradGradGradGradGradGradGradGradGradGradGradGrad

                          Input orientation:                          
 ---------------------------------------------------------------------
 Center     Atomic      Atomic             Coordinates (Angstroms)
 Number     Number       Type             X           Y           Z
 ---------------------------------------------------------------------
      1          6           0       -3.485823    1.078192    0.082787
      2          1           0       -3.134757    0.047869    0.086310
      3          1           0       -3.134541    1.596375   -0.807670
      4          1           0       -4.569598    1.108122    0.134398
      5          6           0       -1.520259    1.755164    1.260831
      6          1           0       -1.167065    2.265749    0.366642
      7          1           0       -1.170315    0.724364    1.258621
      8          6           0       -1.054376    2.479340    2.513925
      9          1           0       -1.407637    1.968803    3.408114
     10          1           0       -1.404254    3.510163    2.516093
     11          6           0        0.911189    3.156682    3.691755
     12          1           0        0.558313    2.639993    4.582449
     13          1           0        1.994962    3.125011    3.641150
     14          1           0        0.561718    4.187541    3.686820
     15          8           0       -2.992980    1.773631    1.287413
     16          8           0        0.418345    2.460761    2.487407
 ---------------------------------------------------------------------
                    Distance matrix (angstroms):
                    1          2          3          4          5
     1  C    0.000000
     2  H    1.088496   0.000000
     3  H    1.088497   1.788035   0.000000
     4  H    1.085416   1.784718   1.784733   0.000000
     5  C    2.389461   2.626968   2.628653   3.314512   0.000000
     6  H    2.620593   2.978152   2.387055   3.601565   1.088585
     7  H    2.620946   2.385580   2.981299   3.600872   1.088584
     8  C    3.712894   4.016634   4.017424   4.460849   1.520434
     9  H    4.021175   4.208006   4.570966   4.632061   2.160821
    10  H    4.020994   4.570117   4.207597   4.632675   2.160824
    11  C    6.056276   6.247690   6.248784   6.847657   3.712894
    12  H    6.248298   6.369706   6.616623   6.958971   4.017030
    13  H    6.847658   6.958427   6.959922   7.710940   4.460849
    14  H    6.248176   6.615473   6.370001   6.959377   4.017027
    15  O    1.475688   2.107369   2.107328   2.063509   1.473077
    16  O    4.789178   4.920554   4.922163   5.678544   2.400112
                    6          7          8          9         10
     6  H    0.000000
     7  H    1.780872   0.000000
     8  C    2.160820   2.160826   0.000000
     9  H    3.065388   2.495049   1.088584   0.000000
    10  H    2.494987   3.065394   1.088584   1.780872   0.000000
    11  C    4.021104   4.021066   2.389461   2.620775   2.620764
    12  H    4.570560   4.207806   2.627808   2.386319   2.979714
    13  H    4.632401   4.632335   3.314512   3.601222   3.601217
    14  H    4.207797   4.570524   2.627812   2.979738   2.386313
    15  O    2.103323   2.103307   2.400113   2.654954   2.655042
    16  O    2.655033   2.654963   1.473077   2.103315   2.103315
                   11         12         13         14         15
    11  C    0.000000
    12  H    1.088497   0.000000
    13  H    1.085416   1.784726   0.000000
    14  H    1.088497   1.788035   1.784725   0.000000
    15  O    4.789178   4.921335   5.678545   4.921382   0.000000
    16  O    1.475688   2.107349   2.063509   2.107348   3.680934
                   16
    16  O    0.000000
 Stoichiometry    C4H10O2
 Framework group  C1[X(C4H10O2)]
 Deg. of freedom    42
 Full point group                 C1      NOp   1
 Largest Abelian subgroup         C1      NOp   1
 Largest concise Abelian subgroup C1      NOp   1
                         Standard orientation:                         
 ---------------------------------------------------------------------
 Center     Atomic      Atomic             Coordinates (Angstroms)
 Number     Number       Type             X           Y           Z
 ---------------------------------------------------------------------
      1          6           0       -3.024448    0.149447    0.000192
      2          1           0       -3.090615    0.768404   -0.892746
      3          1           0       -3.091880    0.765147    0.895286
      4          1           0       -3.808280   -0.601374   -0.001744
      5          6           0       -0.647915    0.397664   -0.000149
      6          1           0       -0.718470    1.019954    0.890241
      7          1           0       -0.718323    1.019836   -0.890631
      8          6           0        0.647915   -0.397664    0.000020
      9          1           0        0.718435   -1.020017   -0.890328
     10          1           0        0.718357   -1.019774    0.890543
     11          6           0        3.024448   -0.149447    0.000105
     12          1           0        3.091291   -0.766910   -0.893817
     13          1           0        3.808280    0.601376    0.000032
     14          1           0        3.091204   -0.766643    0.894218
     15          8           0       -1.744832   -0.585561   -0.000191
     16          8           0        1.744832    0.585561   -0.000067
 ---------------------------------------------------------------------
 Rotational constants (GHZ):     17.5174413      1.2527489      1.2049207
 Standard basis: 6-31++G(d,p) (6D, 7F)
 There are   174 symmetry adapted cartesian basis functions of A   symmetry.
 There are   174 symmetry adapted basis functions of A   symmetry.
   174 basis functions,   272 primitive gaussians,   174 cartesian basis functions
    25 alpha electrons       25 beta electrons
       nuclear repulsion energy       248.0772346419 Hartrees.
 NAtoms=   16 NActive=   16 NUniq=   16 SFac= 1.00D+00 NAtFMM=   60 NAOKFM=F Big=F
 Integral buffers will be    131072 words long.
 Raffenetti 2 integral format.
 Two-electron integral symmetry is turned on.
 Nuclear repulsion after empirical dispersion term =      248.0679901669 Hartrees.
 ------------------------------------------------------------------------------
 Polarizable Continuum Model (PCM)
 =================================
 Model                : PCM (using non-symmetric T matrix).
 Atomic radii         : SMD-Coulomb.
 Polarization charges : Total charges.
 Charge compensation  : None.
 Solution method      : On-the-fly selection.
 Cavity type          : VdW (van der Waals Surface) (Alpha=1.000).
 Cavity algorithm     : GePol (No added spheres)
                        Default sphere list used, NSphG=   16.
                        Lebedev-Laikov grids with approx.  5.0 points / Ang**2.
                        Smoothing algorithm: York/Karplus (Gamma=1.0000).
                        Polarization charges: spherical gaussians, with
                                              point-specific exponents (IZeta= 3).
                        Self-potential: point-specific (ISelfS= 7).
                        Self-field    : sphere-specific E.n sum rule (ISelfD= 2).
 1st derivatives      : Analytical E(r).r(x)/FMM algorithm (CHGder, D1EAlg=3).
                        Cavity 1st derivative terms included.
 Solvent              : DiethylEther, Eps=   4.240000 Eps(inf)=   1.829527
 ------------------------------------------------------------------------------
 Spheres list:
 ISph  on   Nord     Re0    Alpha      Xe            Ye            Ze
    1   C      1    1.8500  1.000     -3.024448      0.149447      0.000192
    2   H      2    1.2000  1.000     -3.090615      0.768404     -0.892746
    3   H      3    1.2000  1.000     -3.091880      0.765147      0.895286
    4   H      4    1.2000  1.000     -3.808280     -0.601374     -0.001744
    5   C      5    1.8500  1.000     -0.647915      0.397664     -0.000149
    6   H      6    1.2000  1.000     -0.718470      1.019954      0.890241
    7   H      7    1.2000  1.000     -0.718323      1.019836     -0.890631
    8   C      8    1.8500  1.000      0.647915     -0.397664      0.000020
    9   H      9    1.2000  1.000      0.718435     -1.020017     -0.890328
   10   H     10    1.2000  1.000      0.718357     -1.019774      0.890543
   11   C     11    1.8500  1.000      3.024448     -0.149447      0.000105
   12   H     12    1.2000  1.000      3.091291     -0.766910     -0.893817
   13   H     13    1.2000  1.000      3.808280      0.601376      0.000032
   14   H     14    1.2000  1.000      3.091204     -0.766643      0.894218
   15   O     15    2.2940  1.000     -1.744832     -0.585561     -0.000191
   16   O     16    2.2940  1.000      1.744832      0.585561     -0.000067
 ------------------------------------------------------------------------------
 ------------------------------------------------------------------------------
 Atomic radii for non-electrostatic terms: SMD-CDS.
 ------------------------------------------------------------------------------
 Nuclear repulsion after PCM non-electrostatic terms =      248.0663536845 Hartrees.
 One-electron integrals computed using PRISM.
 NBasis=   174 RedAO= T EigKep=  4.71D-05  NBF=   174
 NBsUse=   174 1.00D-06 EigRej= -1.00D+00 NBFU=   174
 Initial guess from the checkpoint file:  "2oxygen_ether.chk"
 B after Tr=     0.000000    0.000000    0.000000
         Rot=    0.999999    0.000005   -0.000000   -0.001231 Ang=   0.14 deg.
 ExpMin= 3.60D-02 ExpMax= 5.48D+03 ExpMxC= 8.25D+02 IAcc=3 IRadAn=         5 AccDes= 0.00D+00
 Harris functional with IExCor=  402 and IRadAn=       5 diagonalized for initial guess.
 HarFok:  IExCor=  402 AccDes= 0.00D+00 IRadAn=         5 IDoV= 1 UseB2=F ITyADJ=14
 ICtDFT=  3500011 ScaDFX=  1.000000  1.000000  1.000000  1.000000
 FoFCou: FMM=F IPFlag=           0 FMFlag=      100000 FMFlg1=           0
         NFxFlg=           0 DoJE=T BraDBF=F KetDBF=T FulRan=T
         wScrn=  0.000000 ICntrl=     500 IOpCl=  0 I1Cent=   200000004 NGrid=           0
         NMat0=    1 NMatS0=      1 NMatT0=    0 NMatD0=    1 NMtDS0=    0 NMtDT0=    0
 Petite list used in FoFCou.
 Requested convergence on RMS density matrix=1.00D-08 within 128 cycles.
 Requested convergence on MAX density matrix=1.00D-06.
 Requested convergence on             energy=1.00D-06.
 No special actions if energy rises.
 Inv3:  Mode=1 IEnd=     4930572.
 Iteration    1 A*A^-1 deviation from unit magnitude is 5.11D-15 for   1261.
 Iteration    1 A*A^-1 deviation from orthogonality  is 2.08D-15 for    824    354.
 Iteration    1 A^-1*A deviation from unit magnitude is 5.22D-15 for   1267.
 Iteration    1 A^-1*A deviation from orthogonality  is 3.74D-15 for   1134    597.
 Error on total polarization charges =  0.02736
 SCF Done:  E(RB3LYP) =  -308.893426107     A.U. after   10 cycles
            NFock= 10  Conv=0.14D-08     -V/T= 2.0100
 SMD-CDS (non-electrostatic) energy       (kcal/mol) =      -1.03
 (included in total energy above)
 D1PCM: PCM CHGder 1st derivatives, ID1Alg=3 FixD1E=F DoIter=F DoCFld=F I1PDM=0.
 Calling FoFJK, ICntrl=      2127 FMM=F ISym2X=0 I1Cent= 0 IOpClX= 0 NMat=1 NMatS=1 NMatT=0.
 ***** Axes restored to original set *****
 -------------------------------------------------------------------
 Center     Atomic                   Forces (Hartrees/Bohr)
 Number     Number              X              Y              Z
 -------------------------------------------------------------------
      1        6           0.007055942    0.015564362    0.026936949
      2        1           0.000706108   -0.005962006   -0.001809745
      3        1           0.000716469    0.001409677   -0.006070148
      4        1          -0.004547400   -0.000276449   -0.000488387
      5        6          -0.027818504    0.007047258    0.012057967
      6        1           0.003205231    0.002506120   -0.004817302
      7        1           0.003187330   -0.005434665   -0.000221072
      8        6           0.027818492   -0.007040500   -0.012061918
      9        1          -0.003205175   -0.002505975    0.004816698
     10        1          -0.003187356    0.005435274    0.000221262
     11        6          -0.007055955   -0.015571578   -0.026932840
     12        1          -0.000719375   -0.001404152    0.006069885
     13        1           0.004547404    0.000273553    0.000490072
     14        1          -0.000703185    0.005964978    0.001805106
     15        8           0.016567057   -0.013323167   -0.022945040
     16        8          -0.016567083    0.013317269    0.022948512
 -------------------------------------------------------------------
 Cartesian Forces:  Max     0.027818504 RMS     0.011445849

 GradGradGradGradGradGradGradGradGradGradGradGradGradGradGradGradGradGrad
 Berny optimization.
 Using GEDIIS/GDIIS optimizer.
 FormGI is forming the generalized inverse of G from B-inverse, IUseBI=4.
 GSVD:  received Info=                   1 from GESDD.
 Internal  Forces:  Max     0.021531857 RMS     0.006341689
 Search for a local minimum.
 Step number   2 out of a maximum of   72
 All quantities printed in internal units (Hartrees-Bohrs-Radians)
 Mixed Optimization -- RFO/linear search
 Update second derivatives using D2CorX and points    1    2
 DE= -2.44D-02 DEPred=-2.35D-02 R= 1.04D+00
 TightC=F SS=  1.41D+00  RLast= 3.07D-01 DXNew= 5.0454D-01 9.2065D-01
 Trust test= 1.04D+00 RLast= 3.07D-01 DXMaxT set to 5.05D-01
 ITU=  1  0
 Use linear search instead of GDIIS.
     Eigenvalues ---    0.00230   0.00230   0.00230   0.00230   0.00237
     Eigenvalues ---    0.05287   0.05287   0.05627   0.05796   0.09921
     Eigenvalues ---    0.09943   0.10289   0.10289   0.10722   0.10763
     Eigenvalues ---    0.13348   0.13348   0.15631   0.16000   0.16000
     Eigenvalues ---    0.16000   0.16000   0.16550   0.19503   0.22004
     Eigenvalues ---    0.22607   0.25000   0.28382   0.28519   0.28519
     Eigenvalues ---    0.28519   0.32377   0.37211   0.37230   0.37230
     Eigenvalues ---    0.37230   0.37230   0.37230   0.37230   0.37230
     Eigenvalues ---    0.37230   0.38244
 RFO step:  Lambda=-7.54771760D-03 EMin= 2.29999979D-03
 Quartic linear search produced a step of  0.39109.
 Iteration  1 RMS(Cart)=  0.04470096 RMS(Int)=  0.00132365
 Iteration  2 RMS(Cart)=  0.00261255 RMS(Int)=  0.00021344
 Iteration  3 RMS(Cart)=  0.00000163 RMS(Int)=  0.00021343
 Iteration  4 RMS(Cart)=  0.00000000 RMS(Int)=  0.00021343
 Variable       Old X    -DE/DX   Delta X   Delta X   Delta X     New X
                                 (Linear)    (Quad)   (Total)
    R1        2.05696   0.00586   0.01367   0.00916   0.02283   2.07979
    R2        2.05696   0.00587   0.01367   0.00917   0.02284   2.07980
    R3        2.05114   0.00451   0.01139   0.00626   0.01765   2.06879
    R4        2.78865  -0.02153  -0.04753  -0.05561  -0.10314   2.68551
    R5        2.05713   0.00617   0.01374   0.01023   0.02396   2.08109
    R6        2.05712   0.00617   0.01373   0.01022   0.02396   2.08108
    R7        2.87320  -0.00263  -0.01446   0.00169  -0.01277   2.86043
    R8        2.78371  -0.02060  -0.04946  -0.04931  -0.09877   2.68494
    R9        2.05713   0.00617   0.01373   0.01023   0.02396   2.08109
   R10        2.05713   0.00617   0.01373   0.01023   0.02396   2.08109
   R11        2.78371  -0.02060  -0.04946  -0.04931  -0.09877   2.68494
   R12        2.05696   0.00587   0.01367   0.00917   0.02284   2.07980
   R13        2.05114   0.00451   0.01139   0.00626   0.01765   2.06879
   R14        2.05696   0.00587   0.01367   0.00917   0.02284   2.07980
   R15        2.78865  -0.02153  -0.04753  -0.05561  -0.10314   2.68551
    A1        1.92749  -0.00199   0.00659  -0.02338  -0.01712   1.91036
    A2        1.92622  -0.00170   0.00609  -0.02205  -0.01615   1.91006
    A3        1.91317   0.00276   0.00099   0.02197   0.02269   1.93586
    A4        1.92624  -0.00170   0.00610  -0.02205  -0.01615   1.91009
    A5        1.91311   0.00276   0.00097   0.02200   0.02270   1.93581
    A6        1.85632   0.00002  -0.02124   0.02604   0.00460   1.86092
    A7        1.91577  -0.00024   0.00201  -0.02139  -0.01998   1.89579
    A8        1.93283  -0.00067   0.00868  -0.02060  -0.01230   1.92053
    A9        1.91062   0.00044  -0.00001   0.01640   0.01652   1.92713
   A10        1.93284  -0.00067   0.00868  -0.02060  -0.01229   1.92055
   A11        1.91059   0.00044  -0.00002   0.01639   0.01650   1.92710
   A12        1.86032   0.00075  -0.01968   0.03223   0.01259   1.87291
   A13        1.93283  -0.00067   0.00868  -0.02060  -0.01230   1.92053
   A14        1.93283  -0.00067   0.00868  -0.02060  -0.01229   1.92054
   A15        1.86032   0.00075  -0.01968   0.03223   0.01259   1.87291
   A16        1.91577  -0.00024   0.00201  -0.02139  -0.01998   1.89579
   A17        1.91061   0.00044  -0.00001   0.01639   0.01651   1.92712
   A18        1.91061   0.00044  -0.00001   0.01639   0.01651   1.92712
   A19        1.92623  -0.00170   0.00610  -0.02205  -0.01615   1.91008
   A20        1.92749  -0.00199   0.00659  -0.02338  -0.01712   1.91036
   A21        1.91314   0.00276   0.00098   0.02199   0.02269   1.93583
   A22        1.92623  -0.00170   0.00610  -0.02205  -0.01615   1.91008
   A23        1.85632   0.00002  -0.02124   0.02604   0.00460   1.86092
   A24        1.91314   0.00276   0.00098   0.02198   0.02269   1.93583
   A25        1.88942   0.01266  -0.00830   0.07669   0.06840   1.95781
   A26        1.88942   0.01266  -0.00830   0.07669   0.06840   1.95781
    D1        1.05731   0.00053   0.00471   0.00032   0.00513   1.06243
    D2       -1.06095  -0.00051  -0.00462   0.00133  -0.00339  -1.06434
    D3        3.13977   0.00001   0.00005   0.00082   0.00086   3.14064
    D4        3.14151   0.00000   0.00000  -0.00002  -0.00002   3.14150
    D5        1.01198   0.00123  -0.01374   0.05528   0.04110   1.05309
    D6       -1.06485   0.00061  -0.00687   0.02763   0.02054  -1.04431
    D7       -1.01214  -0.00123   0.01374  -0.05532  -0.04113  -1.05328
    D8        3.14151   0.00000   0.00000  -0.00002  -0.00002   3.14150
    D9        1.06468  -0.00061   0.00687  -0.02767  -0.02058   1.04411
   D10        1.06467  -0.00061   0.00687  -0.02767  -0.02058   1.04409
   D11       -1.06485   0.00061  -0.00687   0.02763   0.02054  -1.04432
   D12        3.14150  -0.00000  -0.00000  -0.00002  -0.00002   3.14148
   D13        1.04994   0.00012   0.00122  -0.00311  -0.00204   1.04790
   D14       -1.05072  -0.00013  -0.00123   0.00291   0.00183  -1.04889
   D15        3.14120  -0.00000  -0.00001  -0.00010  -0.00011   3.14110
   D16        3.14158  -0.00000  -0.00000  -0.00002  -0.00003   3.14156
   D17       -1.05034  -0.00012  -0.00123   0.00298   0.00190  -1.04843
   D18        1.05032   0.00012   0.00122  -0.00304  -0.00196   1.04836
   D19        1.05912   0.00052   0.00467  -0.00053   0.00424   1.06336
   D20        3.14159  -0.00000  -0.00000  -0.00002  -0.00002   3.14157
   D21       -1.05913  -0.00052  -0.00467   0.00049  -0.00428  -1.06341
         Item               Value     Threshold  Converged?
 Maximum Force            0.021532     0.000450     NO 
 RMS     Force            0.006342     0.000300     NO 
 Maximum Displacement     0.120582     0.001800     NO 
 RMS     Displacement     0.045459     0.001200     NO 
 Predicted change in Energy=-6.782374D-03
 GradGradGradGradGradGradGradGradGradGradGradGradGradGradGradGradGradGrad

                          Input orientation:                          
 ---------------------------------------------------------------------
 Center     Atomic      Atomic             Coordinates (Angstroms)
 Number     Number       Type             X           Y           Z
 ---------------------------------------------------------------------
      1          6           0       -3.459387    1.094559    0.111246
      2          1           0       -3.143003    0.040797    0.083667
      3          1           0       -3.141577    1.597084   -0.814903
      4          1           0       -4.549527    1.145504    0.197789
      5          6           0       -1.508865    1.755136    1.260806
      6          1           0       -1.120622    2.271861    0.369151
      7          1           0       -1.123633    0.723459    1.264969
      8          6           0       -1.065771    2.479309    2.513983
      9          1           0       -1.454093    1.962645    3.405637
     10          1           0       -1.450923    3.511017    2.509768
     11          6           0        0.884752    3.140341    3.663280
     12          1           0        0.566044    2.638979    4.589747
     13          1           0        1.974891    3.088351    3.577340
     14          1           0        0.569270    4.194407    3.689694
     15          8           0       -2.929654    1.753600    1.253436
     16          8           0        0.355018    2.480709    2.521433
 ---------------------------------------------------------------------
                    Distance matrix (angstroms):
                    1          2          3          4          5
     1  C    0.000000
     2  H    1.100579   0.000000
     3  H    1.100585   1.797070   0.000000
     4  H    1.094756   1.792125   1.792148   0.000000
     5  C    2.358471   2.644811   2.645619   3.278305   0.000000
     6  H    2.631040   3.024760   2.437533   3.613230   1.101265
     7  H    2.631452   2.437080   3.026745   3.612997   1.101262
     8  C    3.663342   4.020905   4.021042   4.390939   1.513675
     9  H    3.953200   4.193019   4.560066   4.532077   2.155542
    10  H    3.952987   4.559773   4.192242   4.532356   2.155546
    11  C    5.972748   6.216399   6.216679   6.746880   3.663342
    12  H    6.216614   6.388453   6.636433   6.905710   4.020979
    13  H    6.746880   6.905518   6.906079   7.600267   4.390939
    14  H    6.216464   6.636029   6.388104   6.905889   4.020968
    15  O    1.421109   2.085083   2.085051   2.026860   1.420809
    16  O    4.720179   4.912435   4.913054   5.588976   2.364253
                    6          7          8          9         10
     6  H    0.000000
     7  H    1.788867   0.000000
     8  C    2.155539   2.155549   0.000000
     9  H    3.070353   2.495445   1.101264   0.000000
    10  H    2.495365   3.070362   1.101263   1.788867   0.000000
    11  C    3.953109   3.953078   2.358471   2.631263   2.631229
    12  H    4.559940   4.192657   2.645205   2.437313   3.025709
    13  H    4.532255   4.532176   3.278305   3.613119   3.613109
    14  H    4.192604   4.559900   2.645225   3.025797   2.437299
    15  O    2.079218   2.079190   2.364253   2.617814   2.617925
    16  O    2.617909   2.617830   1.420809   2.079204   2.079205
                   11         12         13         14         15
    11  C    0.000000
    12  H    1.100582   0.000000
    13  H    1.094756   1.792137   0.000000
    14  H    1.100582   1.797070   1.792136   0.000000
    15  O    4.720179   4.912715   5.588976   4.912775   0.000000
    16  O    1.421109   2.085068   2.026860   2.085066   3.595215
                   16
    16  O    0.000000
 Stoichiometry    C4H10O2
 Framework group  C1[X(C4H10O2)]
 Deg. of freedom    42
 Full point group                 C1      NOp   1
 Largest Abelian subgroup         C1      NOp   1
 Largest concise Abelian subgroup C1      NOp   1
                         Standard orientation:                         
 ---------------------------------------------------------------------
 Center     Atomic      Atomic             Coordinates (Angstroms)
 Number     Number       Type             X           Y           Z
 ---------------------------------------------------------------------
      1          6           0       -2.983947    0.120371    0.000233
      2          1           0       -3.106103    0.745084   -0.897590
      3          1           0       -3.106447    0.742977    0.899479
      4          1           0       -3.740429   -0.670973   -0.000859
      5          6           0       -0.642173    0.400520   -0.000176
      6          1           0       -0.687266    1.041475    0.894212
      7          1           0       -0.687100    1.041351   -0.894656
      8          6           0        0.642173   -0.400520    0.000013
      9          1           0        0.687225   -1.041550   -0.894321
     10          1           0        0.687140   -1.041277    0.894546
     11          6           0        2.983947   -0.120371    0.000130
     12          1           0        3.106330   -0.744214   -0.898270
     13          1           0        3.740429    0.670974    0.000015
     14          1           0        3.106220   -0.743847    0.898800
     15          8           0       -1.718709   -0.526717   -0.000242
     16          8           0        1.718709    0.526717   -0.000079
 ---------------------------------------------------------------------
 Rotational constants (GHZ):     18.7669465      1.2836492      1.2396631
 Standard basis: 6-31++G(d,p) (6D, 7F)
 There are   174 symmetry adapted cartesian basis functions of A   symmetry.
 There are   174 symmetry adapted basis functions of A   symmetry.
   174 basis functions,   272 primitive gaussians,   174 cartesian basis functions
    25 alpha electrons       25 beta electrons
       nuclear repulsion energy       251.9287075073 Hartrees.
 NAtoms=   16 NActive=   16 NUniq=   16 SFac= 1.00D+00 NAtFMM=   60 NAOKFM=F Big=F
 Integral buffers will be    131072 words long.
 Raffenetti 2 integral format.
 Two-electron integral symmetry is turned on.
 Nuclear repulsion after empirical dispersion term =      251.9195024944 Hartrees.
 ------------------------------------------------------------------------------
 Polarizable Continuum Model (PCM)
 =================================
 Model                : PCM (using non-symmetric T matrix).
 Atomic radii         : SMD-Coulomb.
 Polarization charges : Total charges.
 Charge compensation  : None.
 Solution method      : On-the-fly selection.
 Cavity type          : VdW (van der Waals Surface) (Alpha=1.000).
 Cavity algorithm     : GePol (No added spheres)
                        Default sphere list used, NSphG=   16.
                        Lebedev-Laikov grids with approx.  5.0 points / Ang**2.
                        Smoothing algorithm: York/Karplus (Gamma=1.0000).
                        Polarization charges: spherical gaussians, with
                                              point-specific exponents (IZeta= 3).
                        Self-potential: point-specific (ISelfS= 7).
                        Self-field    : sphere-specific E.n sum rule (ISelfD= 2).
 1st derivatives      : Analytical E(r).r(x)/FMM algorithm (CHGder, D1EAlg=3).
                        Cavity 1st derivative terms included.
 Solvent              : DiethylEther, Eps=   4.240000 Eps(inf)=   1.829527
 ------------------------------------------------------------------------------
 Spheres list:
 ISph  on   Nord     Re0    Alpha      Xe            Ye            Ze
    1   C      1    1.8500  1.000     -2.983947      0.120371      0.000233
    2   H      2    1.2000  1.000     -3.106103      0.745084     -0.897590
    3   H      3    1.2000  1.000     -3.106447      0.742977      0.899479
    4   H      4    1.2000  1.000     -3.740429     -0.670973     -0.000859
    5   C      5    1.8500  1.000     -0.642173      0.400520     -0.000176
    6   H      6    1.2000  1.000     -0.687266      1.041475      0.894212
    7   H      7    1.2000  1.000     -0.687100      1.041351     -0.894656
    8   C      8    1.8500  1.000      0.642173     -0.400520      0.000013
    9   H      9    1.2000  1.000      0.687225     -1.041550     -0.894321
   10   H     10    1.2000  1.000      0.687140     -1.041277      0.894546
   11   C     11    1.8500  1.000      2.983947     -0.120371      0.000130
   12   H     12    1.2000  1.000      3.106330     -0.744214     -0.898270
   13   H     13    1.2000  1.000      3.740429      0.670974      0.000015
   14   H     14    1.2000  1.000      3.106220     -0.743847      0.898800
   15   O     15    2.2940  1.000     -1.718709     -0.526717     -0.000242
   16   O     16    2.2940  1.000      1.718709      0.526717     -0.000079
 ------------------------------------------------------------------------------
 ------------------------------------------------------------------------------
 Atomic radii for non-electrostatic terms: SMD-CDS.
 ------------------------------------------------------------------------------
 Nuclear repulsion after PCM non-electrostatic terms =      251.9177817539 Hartrees.
 One-electron integrals computed using PRISM.
 NBasis=   174 RedAO= T EigKep=  4.75D-05  NBF=   174
 NBsUse=   174 1.00D-06 EigRej= -1.00D+00 NBFU=   174
 Initial guess from the checkpoint file:  "2oxygen_ether.chk"
 B after Tr=    -0.000000   -0.000000    0.000000
         Rot=    1.000000    0.000053   -0.000003   -0.000582 Ang=   0.07 deg.
 ExpMin= 3.60D-02 ExpMax= 5.48D+03 ExpMxC= 8.25D+02 IAcc=3 IRadAn=         5 AccDes= 0.00D+00
 Harris functional with IExCor=  402 and IRadAn=       5 diagonalized for initial guess.
 HarFok:  IExCor=  402 AccDes= 0.00D+00 IRadAn=         5 IDoV= 1 UseB2=F ITyADJ=14
 ICtDFT=  3500011 ScaDFX=  1.000000  1.000000  1.000000  1.000000
 FoFCou: FMM=F IPFlag=           0 FMFlag=      100000 FMFlg1=           0
         NFxFlg=           0 DoJE=T BraDBF=F KetDBF=T FulRan=T
         wScrn=  0.000000 ICntrl=     500 IOpCl=  0 I1Cent=   200000004 NGrid=           0
         NMat0=    1 NMatS0=      1 NMatT0=    0 NMatD0=    1 NMtDS0=    0 NMtDT0=    0
 Petite list used in FoFCou.
 Requested convergence on RMS density matrix=1.00D-08 within 128 cycles.
 Requested convergence on MAX density matrix=1.00D-06.
 Requested convergence on             energy=1.00D-06.
 No special actions if energy rises.
 Inv3:  Mode=1 IEnd=     4815867.
 Iteration    1 A*A^-1 deviation from unit magnitude is 4.00D-15 for   1254.
 Iteration    1 A*A^-1 deviation from orthogonality  is 3.42D-15 for   1233    625.
 Iteration    1 A^-1*A deviation from unit magnitude is 4.22D-15 for   1250.
 Iteration    1 A^-1*A deviation from orthogonality  is 3.40D-14 for   1110   1026.
 Error on total polarization charges =  0.02900
 SCF Done:  E(RB3LYP) =  -308.899849397     A.U. after    9 cycles
            NFock=  9  Conv=0.60D-08     -V/T= 2.0095
 SMD-CDS (non-electrostatic) energy       (kcal/mol) =      -1.08
 (included in total energy above)
 D1PCM: PCM CHGder 1st derivatives, ID1Alg=3 FixD1E=F DoIter=F DoCFld=F I1PDM=0.
 Calling FoFJK, ICntrl=      2127 FMM=F ISym2X=0 I1Cent= 0 IOpClX= 0 NMat=1 NMatS=1 NMatT=0.
 ***** Axes restored to original set *****
 -------------------------------------------------------------------
 Center     Atomic                   Forces (Hartrees/Bohr)
 Number     Number              X              Y              Z
 -------------------------------------------------------------------
      1        6          -0.001513315    0.001576614    0.002717103
      2        1          -0.000585972   -0.000242342   -0.001473341
      3        1          -0.000585605   -0.001160604   -0.000947302
      4        1           0.000817134   -0.000836246   -0.001453818
      5        6          -0.003104356   -0.000300828   -0.000541731
      6        1           0.001020739   -0.000526407   -0.000113461
      7        1           0.001024005    0.000160270   -0.000512480
      8        6           0.003104347    0.000304570    0.000539566
      9        1          -0.001021686    0.000526961    0.000114232
     10        1          -0.001023051   -0.000160664    0.000511620
     11        6           0.001513331   -0.001575553   -0.002717732
     12        1           0.000586704    0.001157550    0.000946270
     13        1          -0.000817132    0.000841255    0.001450925
     14        1           0.000584857    0.000241720    0.001476546
     15        8          -0.000125689   -0.000164870   -0.000270828
     16        8           0.000125689    0.000158575    0.000274431
 -------------------------------------------------------------------
 Cartesian Forces:  Max     0.003104356 RMS     0.001183310

 GradGradGradGradGradGradGradGradGradGradGradGradGradGradGradGradGradGrad
 Berny optimization.
 Using GEDIIS/GDIIS optimizer.
 FormGI is forming the generalized inverse of G from B-inverse, IUseBI=4.
 GSVD:  received Info=                   1 from GESDD.
 Internal  Forces:  Max     0.003756427 RMS     0.001210295
 Search for a local minimum.
 Step number   3 out of a maximum of   72
 All quantities printed in internal units (Hartrees-Bohrs-Radians)
 Mixed Optimization -- RFO/linear search
 Update second derivatives using D2CorX and points    1    2    3
 DE= -6.42D-03 DEPred=-6.78D-03 R= 9.47D-01
 TightC=F SS=  1.41D+00  RLast= 2.59D-01 DXNew= 8.4853D-01 7.7663D-01
 Trust test= 9.47D-01 RLast= 2.59D-01 DXMaxT set to 7.77D-01
 ITU=  1  1  0
 Use linear search instead of GDIIS.
     Eigenvalues ---    0.00230   0.00230   0.00230   0.00230   0.00237
     Eigenvalues ---    0.05175   0.05175   0.05758   0.05768   0.09663
     Eigenvalues ---    0.09710   0.10169   0.10169   0.10675   0.10707
     Eigenvalues ---    0.13413   0.13413   0.14991   0.16000   0.16000
     Eigenvalues ---    0.16000   0.16000   0.16317   0.21881   0.21982
     Eigenvalues ---    0.22727   0.25000   0.28347   0.28519   0.28519
     Eigenvalues ---    0.28541   0.34516   0.37178   0.37230   0.37230
     Eigenvalues ---    0.37230   0.37230   0.37230   0.37230   0.37230
     Eigenvalues ---    0.37232   0.41229
 RFO step:  Lambda=-3.44846113D-04 EMin= 2.29999961D-03
 Quartic linear search produced a step of  0.00668.
 Iteration  1 RMS(Cart)=  0.01267709 RMS(Int)=  0.00004452
 Iteration  2 RMS(Cart)=  0.00003812 RMS(Int)=  0.00001819
 Iteration  3 RMS(Cart)=  0.00000000 RMS(Int)=  0.00001819
 Variable       Old X    -DE/DX   Delta X   Delta X   Delta X     New X
                                 (Linear)    (Quad)   (Total)
    R1        2.07979   0.00010   0.00015   0.00173   0.00188   2.08168
    R2        2.07980   0.00010   0.00015   0.00173   0.00188   2.08168
    R3        2.06879  -0.00097   0.00012  -0.00126  -0.00114   2.06765
    R4        2.68551   0.00193  -0.00069   0.00201   0.00132   2.68683
    R5        2.08109   0.00020   0.00016   0.00198   0.00214   2.08323
    R6        2.08108   0.00021   0.00016   0.00198   0.00214   2.08323
    R7        2.86043   0.00376  -0.00009   0.01082   0.01073   2.87116
    R8        2.68494   0.00200  -0.00066   0.00180   0.00114   2.68608
    R9        2.08109   0.00021   0.00016   0.00198   0.00214   2.08323
   R10        2.08109   0.00021   0.00016   0.00198   0.00214   2.08323
   R11        2.68494   0.00200  -0.00066   0.00180   0.00114   2.68608
   R12        2.07980   0.00010   0.00015   0.00173   0.00188   2.08168
   R13        2.06879  -0.00097   0.00012  -0.00126  -0.00114   2.06765
   R14        2.07980   0.00010   0.00015   0.00173   0.00188   2.08168
   R15        2.68551   0.00193  -0.00069   0.00201   0.00132   2.68683
    A1        1.91036  -0.00195  -0.00011  -0.01070  -0.01085   1.89951
    A2        1.91006  -0.00149  -0.00011  -0.00702  -0.00717   1.90289
    A3        1.93586   0.00156   0.00015   0.00873   0.00884   1.94470
    A4        1.91009  -0.00149  -0.00011  -0.00703  -0.00718   1.90291
    A5        1.93581   0.00157   0.00015   0.00877   0.00888   1.94469
    A6        1.86092   0.00181   0.00003   0.00732   0.00731   1.86823
    A7        1.89579  -0.00043  -0.00013  -0.00934  -0.00949   1.88630
    A8        1.92053  -0.00049  -0.00008  -0.00156  -0.00166   1.91887
    A9        1.92713   0.00003   0.00011   0.00391   0.00402   1.93116
   A10        1.92055  -0.00049  -0.00008  -0.00157  -0.00167   1.91887
   A11        1.92710   0.00003   0.00011   0.00392   0.00403   1.93113
   A12        1.87291   0.00135   0.00008   0.00482   0.00490   1.87780
   A13        1.92053  -0.00049  -0.00008  -0.00156  -0.00167   1.91887
   A14        1.92054  -0.00049  -0.00008  -0.00156  -0.00166   1.91888
   A15        1.87291   0.00135   0.00008   0.00482   0.00490   1.87780
   A16        1.89579  -0.00043  -0.00013  -0.00934  -0.00949   1.88630
   A17        1.92712   0.00003   0.00011   0.00392   0.00403   1.93114
   A18        1.92712   0.00003   0.00011   0.00392   0.00403   1.93115
   A19        1.91008  -0.00149  -0.00011  -0.00703  -0.00717   1.90290
   A20        1.91036  -0.00195  -0.00011  -0.01070  -0.01085   1.89951
   A21        1.93583   0.00156   0.00015   0.00875   0.00886   1.94469
   A22        1.91008  -0.00149  -0.00011  -0.00703  -0.00717   1.90290
   A23        1.86092   0.00181   0.00003   0.00732   0.00731   1.86823
   A24        1.93583   0.00156   0.00015   0.00875   0.00887   1.94470
   A25        1.95781   0.00292   0.00046   0.00778   0.00824   1.96605
   A26        1.95781   0.00292   0.00046   0.00778   0.00824   1.96605
    D1        1.06243  -0.00016   0.00003   0.00115   0.00118   1.06362
    D2       -1.06434   0.00017  -0.00002   0.00274   0.00272  -1.06162
    D3        3.14064   0.00000   0.00001   0.00194   0.00195  -3.14060
    D4        3.14150  -0.00000  -0.00000  -0.00001  -0.00001   3.14149
    D5        1.05309   0.00115   0.00027   0.01349   0.01375   1.06684
    D6       -1.04431   0.00057   0.00014   0.00674   0.00687  -1.03744
    D7       -1.05328  -0.00115  -0.00027  -0.01351  -0.01377  -1.06705
    D8        3.14150  -0.00000  -0.00000  -0.00001  -0.00001   3.14149
    D9        1.04411  -0.00057  -0.00014  -0.00676  -0.00689   1.03721
   D10        1.04409  -0.00057  -0.00014  -0.00676  -0.00689   1.03721
   D11       -1.04432   0.00057   0.00014   0.00674   0.00687  -1.03745
   D12        3.14148   0.00000  -0.00000  -0.00001  -0.00001   3.14147
   D13        1.04790  -0.00025  -0.00001  -0.00251  -0.00254   1.04536
   D14       -1.04889   0.00025   0.00001   0.00407   0.00409  -1.04480
   D15        3.14110   0.00000  -0.00000   0.00078   0.00078  -3.14131
   D16        3.14156   0.00000  -0.00000   0.00013   0.00013  -3.14150
   D17       -1.04843   0.00025   0.00001   0.00342   0.00345  -1.04499
   D18        1.04836  -0.00025  -0.00001  -0.00316  -0.00319   1.04517
   D19        1.06336  -0.00016   0.00003  -0.00076  -0.00073   1.06263
   D20        3.14157  -0.00000  -0.00000   0.00003   0.00003  -3.14158
   D21       -1.06341   0.00016  -0.00003   0.00083   0.00080  -1.06261
         Item               Value     Threshold  Converged?
 Maximum Force            0.003756     0.000450     NO 
 RMS     Force            0.001210     0.000300     NO 
 Maximum Displacement     0.032155     0.001800     NO 
 RMS     Displacement     0.012678     0.001200     NO 
 Predicted change in Energy=-1.738004D-04
 GradGradGradGradGradGradGradGradGradGradGradGradGradGradGradGradGradGrad

                          Input orientation:                          
 ---------------------------------------------------------------------
 Center     Atomic      Atomic             Coordinates (Angstroms)
 Number     Number       Type             X           Y           Z
 ---------------------------------------------------------------------
      1          6           0       -3.468313    1.091484    0.106673
      2          1           0       -3.160019    0.034547    0.070482
      3          1           0       -3.155846    1.585240   -0.827161
      4          1           0       -4.558105    1.142547    0.189846
      5          6           0       -1.510711    1.754457    1.258423
[...]
 ! A19   A(12,11,13)           108.9789         -DE/DX =    0.0                 !
 ! A20   A(12,11,14)           108.6606         -DE/DX =    0.0                 !
 ! A21   A(12,11,16)           111.4694         -DE/DX =    0.0                 !
 ! A22   A(13,11,14)           108.9787         -DE/DX =    0.0                 !
 ! A23   A(13,11,16)           107.2222         -DE/DX =    0.0                 !
 ! A24   A(14,11,16)           111.4696         -DE/DX =    0.0                 !
 ! A25   A(1,15,5)             112.6894         -DE/DX =    0.0                 !
 ! A26   A(8,16,11)            112.6894         -DE/DX =    0.0                 !
 ! D1    D(2,1,15,5)            60.7242         -DE/DX =    0.0                 !
 ! D2    D(3,1,15,5)           -60.8859         -DE/DX =    0.0                 !
 ! D3    D(4,1,15,5)          -180.0808         -DE/DX =    0.0                 !
 ! D4    D(6,5,8,9)           -179.9943         -DE/DX =    0.0                 !
 ! D5    D(6,5,8,10)            61.3503         -DE/DX =    0.0                 !
 ! D6    D(6,5,8,16)           -59.3211         -DE/DX =    0.0                 !
 ! D7    D(7,5,8,9)            -61.3389         -DE/DX =    0.0                 !
 ! D8    D(7,5,8,10)          -179.9943         -DE/DX =    0.0                 !
 ! D9    D(7,5,8,16)            59.3343         -DE/DX =    0.0                 !
 ! D10   D(15,5,8,9)            59.3346         -DE/DX =    0.0                 !
 ! D11   D(15,5,8,10)          -59.3208         -DE/DX =    0.0                 !
 ! D12   D(15,5,8,16)         -179.9922         -DE/DX =    0.0                 !
 ! D13   D(6,5,15,1)            59.886          -DE/DX =    0.0                 !
 ! D14   D(7,5,15,1)           -59.8867         -DE/DX =    0.0                 !
 ! D15   D(8,5,15,1)          -180.0008         -DE/DX =    0.0                 !
 ! D16   D(5,8,16,11)          179.9624         -DE/DX =    0.0                 !
 ! D17   D(9,8,16,11)          -59.9233         -DE/DX =    0.0                 !
 ! D18   D(10,8,16,11)          59.8494         -DE/DX =    0.0                 !
 ! D19   D(12,11,16,8)          60.8156         -DE/DX =    0.0                 !
 ! D20   D(13,11,16,8)         180.0106         -DE/DX =    0.0                 !
 ! D21   D(14,11,16,8)         -60.7945         -DE/DX =    0.0                 !
 --------------------------------------------------------------------------------
 GradGradGradGradGradGradGradGradGradGradGradGradGradGradGradGradGradGrad

 1\1\GINC-HPC-M36-3-12\Freq\RB3LYP\6-31++G(d,p)\C4H10O2\LRK19E\05-Jul-2
 020\0\\#N Geom=AllCheck Guess=TCheck SCRF=Check GenChk RB3LYP/6-31++G(
 d,p) Freq\\Title Card Required\\0,1\C,-3.4692083706,1.0924601003,0.107
 3263757\H,-3.1592734534,0.036594138,0.0682318988\H,-3.1581188834,1.585
 7655186,-0.826648394\H,-4.5583507986,1.140518808,0.1891055971\C,-1.511
 2479303,1.7538711612,1.2585970406\H,-1.1147306983,2.2675758521,0.36822
 95646\H,-1.1181803237,0.7246148664,1.2606258382\C,-1.0633880994,2.4803
 037924,2.5163489903\H,-1.4598212495,1.9665404041,3.406720136\H,-1.4565
 399128,3.5095279417,2.5143691464\C,0.8945743711,3.1426482204,3.6670792
 819\H,0.5825750602,2.6506290749,4.6014299399\H,1.9837153456,3.09354616
 84,3.5859024427\H,0.5855522764,4.1988282674,3.7048726826\O,-2.93234339
 22,1.7501961755,1.2466857671\O,0.3577077088,2.4841379807,2.5281680421\
 \Version=ES64L-G09RevE.01\State=1-A\HF=-308.9000489\RMSD=2.327e-09\RMS
 F=8.769e-06\ZeroPoint=0.1411842\Thermal=0.1535558\Dipole=0.0000007,0.0
 002371,-0.0001376\DipoleDeriv=0.4365108,0.1035639,0.1792455,0.1815593,
 0.5969087,0.1957559,0.3138733,0.1953273,0.8235606,0.0318299,0.1115711,
 -0.0022096,0.0059872,-0.2274416,-0.0686992,-0.0761614,0.0101969,-0.005
 4185,0.0315252,-0.057782,0.0958335,-0.0692012,-0.0353232,0.1206842,-0.
 0326752,0.0420396,-0.1974532,-0.1758833,-0.0225673,-0.0394998,0.010936
 6,0.0736069,-0.029538,0.0186407,-0.0295866,0.0393385,0.9845543,0.08248
 56,0.1444572,-0.0150332,0.4882434,-0.0905519,-0.0241966,-0.0902425,0.3
 843709,-0.0658277,-0.0388782,0.0083169,-0.0621046,-0.0239407,0.1038065
 ,0.1055239,0.0894176,-0.1575529,-0.0652555,0.0261024,-0.0298166,0.1219
 437,-0.2083404,-0.0160811,-0.0013918,-0.0019753,0.0262994,0.9845546,0.
 0827321,0.1443141,-0.0149233,0.4881132,-0.0906411,-0.0242607,-0.090302
 2,0.3845004,-0.0658364,-0.0389185,0.0082953,-0.0621067,-0.0239382,0.10
 38084,0.105503,0.0894239,-0.1575989,-0.0652467,0.026101,-0.0297709,0.1
 219609,-0.208303,-0.0160645,-0.0013794,-0.0019542,0.0263056,0.4365106,
 0.1038081,0.1791043,0.1817805,0.597294,0.1959455,0.3137461,0.1955837,0
 .8231744,0.031444,-0.0577408,0.0961032,-0.0693132,-0.0350518,0.1203973
 ,-0.0324505,0.041847,-0.1975494,-0.1758819,-0.0223986,-0.0395973,0.011
 2008,0.0735103,-0.0295665,0.0184877,-0.0296691,0.0394352,0.0319107,0.1
 113578,-0.002379,0.0057359,-0.2276429,-0.068467,-0.0761757,0.0105227,-
 0.005392,-1.1774539,-0.2045399,-0.3563014,-0.1741003,-0.6637078,-0.215
 3714,-0.3036057,-0.2151759,-0.9131501,-1.1774548,-0.2048967,-0.3560955
 ,-0.1743224,-0.6639871,-0.2154171,-0.3034776,-0.2154528,-0.9128701\Pol
 ar=75.1429654,3.590963,67.0560074,6.2462236,3.6713937,71.3134539\PG=C0
 1 [X(C4H10O2)]\NImag=0\\0.59988842,-0.02285199,0.53152946,-0.03939411,
 -0.03954307,0.48587857,-0.07637587,0.07300720,0.00049162,0.07276831,0.
 07084265,-0.27095349,0.00422270,-0.07484770,0.30016815,-0.00148045,0.0
 0689549,-0.05006133,0.00359820,0.00792820,0.05702780,-0.07654704,-0.03
 614780,0.06367803,0.00410140,0.00588835,-0.00799797,0.07294021,-0.0367
 7286,-0.10993079,0.09963069,-0.00990602,-0.01340682,0.02510026,0.04061
 262,0.11076663,0.06083135,0.09697218,-0.21092147,0.00110793,0.00166414
 ,0.00202620,-0.06326488,-0.10116538,0.24626230,-0.31411378,0.01546636,
 0.02645022,-0.00676280,0.00064896,0.00189177,-0.00680137,0.00132561,0.
 00150849,0.34101041,0.02167945,-0.05135580,-0.00065650,0.02993777,0.00
 051819,-0.00320221,-0.01565664,0.00183092,0.00191184,-0.01331397,0.050
 17258,0.03720931,-0.00066857,-0.05206963,-0.00081249,0.00117278,0.0010
 7492,0.02552325,-0.00247978,-0.00020505,-0.02267552,0.00670533,0.05789
 603,-0.03056377,-0.00633221,-0.01102276,0.00338954,0.00381171,0.004895
 19,0.00339929,0.00233515,0.00574886,0.00258199,-0.00023004,-0.00040393
 ,0.46931705,-0.02167495,-0.00572717,-0.00035129,-0.00388694,0.00105913
 ,-0.00135792,0.00197396,0.00130313,0.00028570,-0.00173729,-0.00121802,
 -0.00269771,-0.00958089,0.57893948,-0.03757428,-0.00028971,-0.00620066
 ,0.00005030,0.00015026,0.00070940,-0.00333211,-0.00119356,0.00044592,-
 0.00298576,-0.00268145,-0.00431459,-0.01702978,-0.01544160,0.56108011,
 0.00211544,0.00143879,0.00611008,-0.00027548,-0.00031309,-0.00067284,0
 .00035571,0.00029608,-0.00180308,0.00008207,0.00022453,-0.00039553,-0.
 07109393,-0.03475551,0.05873732,0.09258142,0.00010138,0.00061193,0.001
 07798,0.00019286,-0.00038413,0.00022319,-0.00040912,-0.00028247,-0.000
 41992,0.00002163,0.00000420,-0.00031564,-0.03605045,-0.11234836,0.0967
 8022,0.04346814,0.11287805,-0.00149973,-0.00190124,0.00261010,-0.00005
 122,0.00035246,-0.00022145,0.00105341,0.00100502,0.00050739,0.00015767
 ,-0.00001528,0.00028223,0.06048993,0.09424475,-0.21192407,-0.07290927,
 -0.10232160,0.22834351,0.00211522,0.00458189,0.00430017,0.00035821,-0.
 00171092,-0.00064100,-0.00027571,-0.00042926,-0.00060717,0.00008189,-0
 .00045243,-0.00000028,-0.07062659,0.06756318,-0.00085389,0.00648945,-0
 .00864561,0.00015275,0.09200442,-0.00135559,0.00245785,-0.00084754,0.0
 0111434,0.00006101,0.00120434,-0.00014048,-0.00050940,0.00028080,0.000
 12530,0.00035887,0.00018756,0.06973550,-0.27019417,0.00383944,0.004374
 12,-0.01425104,0.00016198,-0.08420886,0.28865535,-0.00065540,0.0021627
 1,0.00076254,0.00017047,-0.00022948,0.00016492,0.00014191,0.00014723,-
 0.00009544,0.00009726,-0.00011404,-0.00006946,-0.00109362,0.00637123,-
 0.05454013,-0.00732001,0.02510407,0.00026767,0.00139115,-0.00168691,0.
 05314121,-0.00563148,0.00007115,0.00010497,0.00006671,-0.00017193,0.00
 015476,0.00006661,0.00021920,-0.00007336,-0.00044963,-0.00073913,-0.00
 128270,-0.06870298,-0.01014776,-0.01750426,0.00399977,0.00476832,0.009
 24091,0.00397346,0.00556499,0.00865570,0.46931707,0.00097297,-0.001376
 29,-0.00093353,-0.00021722,0.00057784,0.00008699,-0.00001290,0.0000939
 0,0.00010609,0.00045533,0.00071823,0.00032547,-0.01014721,-0.11447866,
 -0.05739709,0.00477125,0.00758142,0.01434919,-0.00884114,-0.01529647,-
 0.02844671,-0.00958416,0.57895792,0.00166406,-0.00093344,-0.00244227,-
 0.00013831,0.00038392,0.00020417,-0.00025654,-0.00019033,0.00068745,0.
 00078479,0.00032091,0.00108849,-0.01750458,-0.05739710,-0.18061435,-0.
 00744268,-0.01523144,-0.02339298,0.00043718,0.00118899,-0.00048533,-0.
 01702786,-0.01543102,0.56106169,0.00013416,0.00019457,-0.00008782,0.00
 001803,0.00000896,0.00002336,-0.00013588,-0.00009085,0.00003936,-0.000
 00789,0.00000257,0.00004896,0.00400062,0.00477179,-0.00744317,-0.00090
 362,-0.00127266,-0.00176100,0.00034951,-0.00001863,0.00064630,-0.07107
 849,-0.03475007,0.05872063,0.09256135,0.00015632,-0.00004591,-0.000106
 45,0.00000911,0.00000198,-0.00000274,-0.00004750,-0.00007096,0.0000702
 3,-0.00000290,-0.00000348,0.00010137,0.00476673,0.00758169,-0.01523219
 ,-0.00127248,-0.00042907,-0.00307295,0.00057177,0.00119872,0.00030256,
 -0.03604475,-0.11236016,0.09679212,0.04346317,0.11289292,-0.00027610,-
 0.00009493,0.00031484,0.00004354,-0.00000119,-0.00002137,0.00008790,0.
 00001585,0.00026850,-0.00010270,-0.00006153,-0.00001337,0.00923901,0.0
 1435020,-0.02339373,-0.00176082,-0.00307261,-0.00351836,0.00030374,-0.
 00022328,0.00124682,0.06047025,0.09425642,-0.21192461,-0.07289092,-0.1
 0233419,0.22834677,0.00013248,-0.00017326,0.00012500,-0.00013568,0.000
 08003,-0.00005902,0.00001797,0.00001592,0.00001937,-0.00000796,0.00004
 082,0.00002636,0.00397261,-0.00884045,0.00043695,0.00034950,0.00057164
 ,0.00030373,-0.00090179,-0.00088346,-0.00198501,-0.07064193,0.06758044
 ,-0.00085033,0.00648946,-0.00864205,0.00015251,0.09202443,-0.00031696,
 0.00031327,0.00011008,0.00010036,0.00014650,0.00014183,0.00003287,-0.0
 0001399,-0.00001064,-0.00008740,-0.00002778,-0.00007579,0.00556584,-0.
 01529586,0.00118850,-0.00001858,0.00119846,-0.00022335,-0.00088353,-0.
 00008733,-0.00287469,0.06975551,-0.27018076,0.00382878,0.00437609,-0.0
 1425177,0.00016156,-0.08422742,0.28863843,-0.00000119,0.00009809,-0.00
 004356,0.00000225,0.00019590,0.00005065,0.00002937,-0.00001159,-0.0000
 0564,-0.00005340,0.00008763,0.00001146,0.00865803,-0.02844545,-0.00048
 545,0.00064617,0.00030272,0.00124662,-0.00198525,-0.00287436,-0.003861
 22,-0.00108881,0.00636035,-0.05454131,-0.00732298,0.02510366,0.0002684
 0,0.00138643,-0.00167559,0.05314015,-0.00052965,-0.00006859,-0.0001213
 0,-0.00000879,0.00001594,0.00003124,-0.00000895,0.00001901,0.00002932,
 -0.00002776,-0.00005891,-0.00010219,-0.00563148,0.00097126,0.00166505,
 0.00013410,0.00015653,-0.00027594,0.00013254,-0.00031699,-0.00000146,-
 0.03056384,-0.02169659,-0.03756177,0.00211309,0.00010104,-0.00150142,0
 .00211757,-0.00135430,-0.00065425,0.59988958,-0.00006833,-0.00020896,-
 0.00067264,0.00000964,0.00009441,0.00010009,-0.00003294,0.00001035,0.0
 0014676,0.00014383,0.00005681,0.00011116,0.00007388,-0.00137622,-0.000
 93599,0.00019422,-0.00004607,-0.00009482,-0.00017303,0.00031353,0.0000
 9849,-0.00632998,-0.00572355,-0.00029213,0.00144325,0.00061126,-0.0018
 9828,0.00458199,0.00246044,0.00216025,-0.02289606,0.53149144,-0.000121
 45,-0.00067152,-0.00098201,-0.00003239,0.00019475,0.00015223,-0.000007
 84,0.00005166,0.00023646,0.00024804,0.00011021,0.00018392,0.00010340,-
 0.00093088,-0.00244235,-0.00008829,-0.00010679,0.00031441,0.00012554,0
 .00011003,-0.00004323,-0.01102401,-0.00034480,-0.00620420,0.00611256,0
 .00108154,0.00261064,0.00429506,-0.00084937,0.00076008,-0.03936900,-0.
 03956384,0.48591550,-0.00000891,-0.00003297,-0.00000793,-0.00000088,0.
 00000774,0.00000207,0.00000859,0.00000725,0.00001079,0.00000703,0.0000
 0221,0.00000239,0.00006701,-0.00001225,-0.00025723,-0.00013608,-0.0000
 4768,0.00008772,0.00001806,0.00003300,0.00002950,0.00339818,0.00197288
 ,-0.00333531,0.00035807,-0.00040866,0.00105355,-0.00027583,-0.00014077
 ,0.00014136,-0.07667130,-0.03615805,0.06387771,0.07307488,0.00001905,0
 .00001049,0.00005192,-0.00000208,-0.00000560,-0.00000604,0.00000725,0.
 00000275,-0.00000888,-0.00000250,-0.00000196,-0.00000138,0.00021944,0.
 00009333,-0.00018963,-0.00009084,-0.00007091,0.00001611,0.00001580,-0.
 00001397,-0.00001176,0.00233991,0.00130416,-0.00119353,0.00029407,-0.0
 0028226,0.00100485,-0.00042912,-0.00050918,0.00014807,-0.03678914,-0.1
 0965203,0.09944370,0.04063124,0.11047494,0.00002932,0.00014648,0.00023
 641,0.00000772,-0.00004283,-0.00003367,0.00001077,-0.00000883,-0.00004
 147,-0.00004526,-0.00002169,-0.00004294,-0.00007346,0.00010594,0.00068
 767,0.00003947,0.00007030,0.00026870,0.00001942,-0.00001044,-0.0000054
 9,0.00574729,0.00028446,0.00045053,-0.00180349,-0.00042080,0.00050621,
 -0.00060636,0.00028135,-0.00009580,0.06102202,0.09678299,-0.21107210,-
 0.06348647,-0.10094015,0.24641506,-0.00002776,0.00014356,0.00024820,0.
 00000701,-0.00003797,-0.00002467,0.00000700,-0.00000245,-0.00004527,-0
 .00004793,-0.00002804,-0.00004866,-0.00044963,0.00045529,0.00078482,-0
 .00000785,-0.00000283,-0.00010258,-0.00000800,-0.00008747,-0.00005353,
 0.00258199,-0.00173430,-0.00298750,0.00008212,0.00002170,0.00015746,0.
 00008184,0.00012552,0.00009730,-0.31411269,0.01573241,0.02629645,-0.00
 682544,0.00133621,0.00150393,0.34100941,-0.00005910,0.00005667,0.00011
 034,0.00000096,-0.00002268,-0.00001326,0.00000222,-0.00000194,-0.00002
 171,-0.00002808,-0.00002014,-0.00003547,-0.00074041,0.00071839,0.00032
 178,0.00000262,-0.00000340,-0.00006150,0.00004092,-0.00002791,0.000087
 56,-0.00023471,-0.00121929,-0.00268724,0.00022441,0.00000440,-0.000015
 18,-0.00045282,0.00035855,-0.00011393,0.02195771,-0.05139068,-0.000671
 96,-0.01562054,0.00184263,0.00189896,-0.01360160,0.05021866,-0.0001020
 8,0.00011086,0.00018406,0.00000311,-0.00003369,-0.00002208,0.00000237,
 -0.00000133,-0.00004295,-0.00004864,-0.00003541,-0.00006110,-0.0012819
 6,0.00032477,0.00108834,0.00004887,0.00010141,-0.00001318,0.00002636,-
 0.00007585,0.00001132,-0.00040124,-0.00269341,-0.00431331,-0.00039515,
 -0.00031582,0.00028254,-0.00000037,0.00018739,-0.00006966,0.03704853,-
 0.00069375,-0.05203428,0.02553376,-0.00250510,-0.00019009,-0.02250926,
 0.00673207,0.05784952,-0.00000883,0.00000970,-0.00003232,0.00000861,0.
 00000570,0.00001165,-0.00000087,-0.00000212,0.00000769,0.00000698,0.00
 000094,0.00000310,0.00006632,-0.00021630,-0.00013853,0.00001794,0.0000
 0907,0.00004336,-0.00013548,0.00010043,0.00000251,0.00339062,-0.003884
 72,0.00005286,-0.00027537,0.00019319,-0.00005071,0.00035581,0.00111450
 ,0.00016994,-0.07625364,0.07282916,0.00040130,0.00410135,-0.00993261,0
 .00112137,-0.00673873,0.02994645,-0.00084896,0.07263591,0.00001597,0.0
 0009440,0.00019510,0.00000571,-0.00002283,-0.00002356,0.00000773,-0.00
 000555,-0.00004293,-0.00003800,-0.00002269,-0.00003373,-0.00017171,0.0
 0057804,0.00038386,0.00000886,0.00000188,-0.00000144,0.00007995,0.0001
 4648,0.00019585,0.00381542,0.00105488,0.00014966,-0.00031373,-0.000383
 31,0.00035251,-0.00171153,0.00006140,-0.00022825,0.07066939,-0.2710711
 7,0.00450378,0.00586345,-0.01337326,0.00168337,0.00065806,0.00048748,0
 .00117484,-0.07464633,0.30031934,0.00003120,0.00009991,0.00015214,0.00
 001167,-0.00002351,-0.00001582,0.00000202,-0.00000601,-0.00003367,-0.0
 0002463,-0.00001323,-0.00002206,0.00015460,0.00008609,0.00020430,0.000
 02344,-0.00000262,-0.00002144,-0.00005908,0.00014159,0.00005042,0.0048
 9185,-0.00135977,0.00070799,-0.00067336,0.00022295,-0.00022213,-0.0006
 3912,0.00120486,0.00016547,-0.00156103,0.00717435,-0.05007137,-0.00798
 155,0.02511949,0.00199278,0.00188493,-0.00318781,0.00107885,0.00369218
 ,0.00762312,0.05701496,-0.10078893,-0.03085300,-0.05351679,0.00286907,
 -0.00377938,0.00059349,0.00290037,0.00243099,-0.00295704,-0.01514206,-
 0.02114094,-0.03662690,-0.21336640,0.01590155,0.02689890,-0.03473558,-
 0.00389073,0.00501057,-0.03459834,0.00642662,-0.00094995,-0.02635960,-
 0.00078143,-0.00145620,0.00102716,0.00102906,0.00005868,0.00102313,-0.
 00046216,0.00092507,0.00021031,0.00154975,0.00267291,-0.00002728,-0.00
 005893,-0.00055237,-0.00040920,-0.00026856,-0.00046496,-0.00002746,-0.
 00044937,-0.00032523,0.41923435,-0.00994254,-0.09666556,-0.06339219,-0
 .01562529,-0.01766332,-0.03704876,0.00393066,0.01025981,0.00057456,-0.
 00265156,-0.00075589,-0.00184859,-0.00402205,-0.07119880,-0.01228269,-
 0.01842900,0.00502418,-0.00229475,0.03261164,0.00629006,-0.00212352,-0
 .01922664,0.00156396,0.00297702,0.00010060,0.00051479,-0.00014273,-0.0
 0012188,0.00089933,0.00101739,-0.00074520,0.00119091,0.00110256,-0.000
 00802,-0.00004576,-0.00034249,-0.00032517,-0.00025434,-0.00044672,0.00
 010722,-0.00016833,-0.00002564,0.03821367,0.16360093,-0.01737091,-0.06
 349490,-0.16988568,-0.00450480,-0.01552006,-0.01077623,-0.01578871,-0.
 02093809,-0.03870624,-0.00463860,-0.00188789,-0.00296811,-0.00753768,-
 0.01219203,-0.08524215,0.02686752,-0.00299034,0.00384787,-0.00265775,-
 0.00147167,0.00243380,-0.03334507,0.00304804,0.00494182,-0.00007879,0.
 00080129,0.00140199,0.00004758,0.00007566,0.00102220,-0.00128970,0.001
 11468,0.00246691,0.00011926,0.00004383,-0.00038227,-0.00056380,-0.0004
 4732,-0.00077042,0.00005206,-0.00041482,-0.00025819,0.06738281,0.11984
 569,0.30190621,0.00021031,0.00154660,0.00267473,-0.00002740,-0.0004490
 6,-0.00032579,-0.00002733,-0.00005828,-0.00055236,-0.00040920,-0.00026
 819,-0.00046517,-0.02635964,-0.00078467,-0.00145432,0.00102714,0.00102
 951,0.00005970,0.00102315,-0.00046282,0.00092418,-0.21336646,0.0158968
 9,0.02690156,-0.03473233,-0.00389375,0.00501602,-0.03460161,0.00642041
 ,-0.00095006,-0.10078909,-0.03089975,-0.05348999,0.00291254,0.00244224
 ,-0.00293391,-0.01514215,-0.02116947,-0.03661038,0.00285683,-0.0037938
 8,0.00057212,-0.00180954,-0.00386643,-0.00669342,0.41923479,-0.0007454
 7,0.00118989,0.00110439,0.00010730,-0.00016834,-0.00002590,-0.00000827
 ,-0.00004557,-0.00034283,-0.00032532,-0.00025403,-0.00044701,-0.019233
 27,0.00156406,0.00297984,0.00010089,0.00051532,-0.00014258,-0.00012037
 ,0.00089842,0.00101740,-0.00405545,-0.07121713,-0.01228518,-0.01843355
 ,0.00502115,-0.00229748,0.03261116,0.00629028,-0.00212488,-0.00996510,
 -0.09676047,-0.06345909,0.00391116,0.01022661,0.00053337,-0.00265291,-
 0.00074640,-0.00183024,-0.01563430,-0.01769675,-0.03705377,-0.00386715
 ,-0.00259198,-0.00557208,0.03831066,0.16377494,-0.00128955,0.00111166,
 0.00246794,0.00005240,-0.00041438,-0.00025834,0.00011902,0.00004420,-0
 .00038230,-0.00056371,-0.00044667,-0.00077072,-0.03334124,0.00304530,0
 .00494174,-0.00008036,0.00080107,0.00140297,0.00004812,0.00007530,0.00
 102160,-0.00751844,-0.01221069,-0.08522377,0.02686548,-0.00299059,0.00
 384686,-0.00265280,-0.00147058,0.00243762,-0.01735810,-0.06353730,-0.1
 6979061,-0.01578962,-0.02097150,-0.03869354,-0.00463781,-0.00189535,-0
 .00297755,-0.00448751,-0.01551735,-0.01072224,-0.00669300,-0.00556916,
 -0.00903149,0.06732710,0.11994605,0.30173184\\-0.00000879,-0.00000879,
 -0.00001674,-0.00000023,0.00000203,-0.00000533,-0.00001188,-0.00000457
 ,0.00000093,0.00000841,-0.00000304,0.00000017,0.00000512,-0.00000971,0
 .00000809,-0.00001240,-0.00000645,0.00000108,-0.00000563,0.00000497,-0
 .00000270,-0.00000514,-0.00000400,-0.00000016,0.00000838,0.00000450,-0
 .00000399,0.00000966,-0.00000343,0.00000585,0.00000876,0.00001319,0.00
 001420,0.00000656,0.00000497,-0.00000092,-0.00000841,0.00000169,0.0000
 0059,0.00000556,-0.00000183,0.00000497,0.00001547,0.00002538,0.0000077
 4,-0.00001542,-0.00001490,-0.00001379\\\@


 MUD THROWN IS GROUND LOST -- FROM A TEA BAG
 Job cpu time:       0 days  0 hours 14 minutes  1.9 seconds.
 File lengths (MBytes):  RWF=   1216 Int=      0 D2E=      0 Chk=     16 Scr=     16
 Normal termination of Gaussian 09 at Sun Jul  5 15:44:23 2020.
